Formula,T,Seebeck,s,k,ZT
Zn0.875Cd0.125Sc0.02O1.03,1073,-147,23000,2.85,0.187
Cu5.133Sn1.866S6.3Cl0.7,426,76.42,87452,1.76,0.124
Ba1.8Bi0.2CoRuO6,518,24.4,137180,1.32,0.033
Al0.005Sb0.1Ge0.895Te,823,234.76,58795,1.522,1.64
In0.015Pb0.985Te0.994I0.006,637,-219.5,22800,1.359,0.515
Bi2.0S2.91Se0.09,623,-518,373,0.55,0.113
Bi0.95Ba0.05CuSeO,725,281,4175,0.625,0.382
BiCuSeO,923,419,1383,0.42,0.534
Sn0.91Mn0.09Te0.99I0.01,867,214.43,56410,1.641,1.37
ZrNiPb0.993Bi0.007,475,-198,137000,7.521,0.339
Yb14MnSb11,325,53,47966,1,0.044
Ag(Bi0.8Pb0.2)0.7Sb0.3Se2,576,251.35,1631,4.01,0.015
Ca1.55Yb3.45Al2Sb6,610,168.78,1796,0.883,0.035
Pb0.98Zn0.035Te,318,-161,114276,2.59,0.358
(Sn0.8Ge0.2)0.88Mn0.12Te,773,130,107400,1.74,0.806
NbCoSn,879,-228.53,35030,7.643,0.21
Ba0.15Yb0.01Co4Sb12,600,-179,113000,3.624,0.599
Bi0.825Ba0.175CuSeO,825,208.97,10577,0.553,0.782
FeVSb,400,-210,104000,8.26,0.222
TiNiSn,630,-151,80620,4.016,0.323
Mg2Zn1.04Sb2,473,131.58,1391,0.644,0.018
Ca3.46Yb1.35Pr0.19Al2Sb6,523,-150,1104,1.325,0.01
Sr14MgBi11,817,106.59,51773,1.332,0.361
Ge0.9Mn0.05Sb0.05Te,698,198.4,79381,1.69,1.291
Pb0.97Tl0.015Na0.015Te,597,223.2,42792,1.144,1.112
Cu2.94Ag0.06SbSe4,623,346,7273,0.93,0.59
Mg3.5Gd0.04Sb1.97Te0.03,500,-226.79,20147,0.788,0.658
Ag0.94CuSe,694,220.4,14221,0.599,0.87
Ti0.9Mn0.1NiSn0.9Sb0.1,697,-125.84,240397,5.651,0.47
Zn0.9Cd0.1Sc0.03O1.045,973,-142,30000,3.303,0.178
Ba0.16In0.12Co4Sb11.85,850,-194,97300,1,1.2
Cu1.02Fe0.98S2,200,-557.25,107.5,18.07,0
(Cu0.005Pb0.995Te)(MnTe)0.03,823,-172.81,61918,1.475,1.03
Sn0.975Pb0.01Cd0.015Se,673,423.33,1428.6,0.522,0.33
Sb0.1Ge0.9Te,773,240.74,57798,1.55,1.626
Sn0.91Mn0.09Te0.99I0.01,818,198.45,66154,1.796,1.187
SnS,800,548,300,0.7,0.103
Bi1.94Nb0.06Te3,306,-87.63,82157,0.882,0.219
Ba8Ga15.88Zn0.007Sn30.12,540,396.48,12023,1.033,0.988
Cu1.975S0.5Se0.5,375,108.38,15000,0.67,0.099
Yb0.20Co4Sb12,850,-208,97000,1.3,1.2
Ag8Sn0.5Ga0.5Se6,576,-363.7,2000,0.27,0.54
Sb0.15Ge0.85Te,323,159.26,22018,1.2,0.15
Ag0.01Sn0.99Se0.65S0.35,666,443.16,364,0.19,0.251
Zn0.95Cd0.05Sc0.02O1.03,473,-86,17300,8,0.008
Mg3.5Ho0.04Sb1.97Te0.03,700,-265.5,16150,0.748,1.066
Ag8Sn0.6Ga0.4Se6,426,-510.98,396,0.249,0.177
Cu7P(S0.5Se0.5)6,523,250.4,2840,0.289,0.322
Mg3.5Ho0.01Sb2,700,-317.48,2139,0.705,0.214
Zn0.9Cd0.1Sc0.04O1.06,1073,-160.5,23230,2.955,0.217
Sn0.98In0.02Se,723,425,324,0.639,0.066
Nb0.8 CoSb,1123,-225.7,24940,1.92,0.62
Li1.1Co0.85Ni0.15O2,723,293,100,2.186,0.003
MgAgSb0.98In0.02,500,175.27,71171,1.447,0.792
Zn0.96Al0.04O,473,-75,54100,4.52,0.032
Ge12Sb2Te15,473,215.54,30337,1.497,0.445
Cu1.95S0.5Se0.5,772,146.67,55990,1.265,0.735
Cu2Se0.88S0.12,450,150.66,31629,0.694,0.466
Rb2Bi8Se13,625,-281,1023,0.445,0.113
Ca10ZnSb9,573,61.2,41.9,0.581,0
Ba0.05Yb0.09Co4Sb12.13,300,-158,112600,2,0.3
Ba0.14In0.23Co4Sb11.84,850,-190,112000,0.7,1.3
(SnTe)0.9(CuSbTe2)0.1,427,55.7,250100,3.615,0.092
GeSe0.55Te0.45,776,132.78,107836,2.135,0.691
LiCo0.92Ni0.08O2,1023,509.5,119.5,1.4,0.023
Mg0.95Li0.05Ge0.9Si0.1,675,286.3,17240,2.43,0.392
Gd2Se2.92,550,-115.58,25380,1.4,0.133
Ca2Yb9Sb9Ge,513,20.44,877.6,2.034,0
Ba0.96K0.04Zn2As2,423,55.56,100000,2.407,0.054
Nb0.75Ta0.25CoSn0.9Sb0.1,924,-181.9,73475,3.557,0.632
Cu1.99S0.5Se0.5,772,243.23,12772,0.652,0.895
Cu26Ti2Sb4Ge2S32,498,159.79,44882,1.026,0.556
Bi0.94Ag0.06CuSeO,523,274,1580,0.492,0.126
(CaZn0.4Ag0.2Sb)0.91(LiZnSb)0.09,472,143.96,34759,0.895,0.38
(Ag0.15Sb0.15Sn0.7)(S0.15Se0.15Te0.7),593,138.02,53271,1.068,0.564
Ge0.96Mn0.02Sb0.02Te,298,54.19,325773,4.545,0.063
Cu1.6S,600,38.7,292308,4.332,0.061
Ba0.03Co4Sb12,500,-244.14,27660,4.075,0.202
Sr0.17Co4Sb12.88,300,-129,135500,4.6,0.1
Ag0.01Cr1.99Se3,512,143.2,28600,1.607,0.187
Cu3.0SbSe4,498,397,3820,1.3,0.231
Rb2Bi8Se12.961,330,-186,11200,0.682,0.187
Ga0.15Co4Sb11.925Ga0.075,600,-291,25500,2.1,0.5
Ca3Co3.7Ti0.3O9,300,178.2,4300,2.3,0.018
Ag2Se,474,-94.33,126638,3.029,0.162
Bi1.2Sb0.8Se2.76Cl0.24,400,-115,31602,0.69,0.242
NbCoSn,576,-214.3,47550,9.31,0.135
Ca3Al0.99Zn0.01Sb3,522,208,9711,1.07,0.187
SnS0.97Se0.03,573,300,20200,1.49,0.687
Cu2.2Se,672,170,43300,1.05,0.801
LiCo0.92Ni0.08O2,723,776.71,3.3,1.409,0.001
Nb0.8Ti0.2FeSb,1100,204,104840,2.68,1.09
Yb13.6Ce0.363Mn0.99Sb11.05,573,113.97,31077,0.862,0.268
Sr14MgBi11,424,41.59,59592,1.266,0.035
Ca2Yb9Sb9Ge,701,21.1,885.6,2.332,0
Ge0.99Te,323,40.54,699510,5.7,0.065
(SnTe)0.96(CuSbTe2)0.04,430,40.66,326803,5.031,0.046
Ag2.0Se0.8Te0.2,360,-127,100825,0.818,0.716
Li0.03Cu1.85Se,784,78.29,165385,2.478,0.321
Cu2.8Sn0.2Sb0.8Se3.8,723,88.57,171808,3.034,0.321
GeSe0.65Te0.35,678,40,89925,1.874,0.052
Yb14MnSb11,925,151,23069,0.95,0.512
Cu2.8Sn0.2Sb0.8Se3.8,300,36,429021,5.74,0.029
Nd2.78Te4,973,-190,28900,0.95,1.015
Sn0.91Mn0.09Te0.97I0.03,424,78.35,186667,3.183,0.153
Cu11.6Gd0.4Sb4S13,425,95.28,100000,1.326,0.291
NbCo0.94Ni0.06Sn,594,-80.59,142857,7.774,0.071
Cu2SnS3,523,390,190,1.23,0.012
Rb2Bi8Se12.974Cl0.026,823,-151,15960,0.692,0.433
LiCo0.96Ni0.04O2,423,571.23,0,2.227,0
Cu2Se,353,96.05,100000,0.908,0.359
BaGd2NiO5,638,453.68,15.9,1.802,0.001
In4Se2.32Cl0.03,473,-256.6,19471,0.907,0.669
CuAgTe0.5Se0.5,303,147.87,10703,0.467,0.152
Cu2Se0.96S0.04,303,88.82,121014,0.872,0.332
Ca3Al0.95Zn0.05Sb3,522,214.4,5050,0.922,0.129
Cu2Sn0.95Zn0.05S3,323,98.5,18500,1.588,0.037
GeSe0.75Te0.25,530,26.51,64552,1.515,0.016
Tl9.0Bi0.99Te6.0,443,237.2,14000,0.409,0.854
Bi0.9Ag0.1CuSeO,523,266,1900,0.52,0.135
Bi1.2Sb0.8Se2.82Cl0.18,700,-190,15138,0.62,0.617
FeNb0.86Hf0.14Sb,800,181.6,177519,4.678,1.001
SnS0.91Se0.09,300,203.5,128084,2.3,0.686
Sn0.98In0.02Se,373,391,35,0.8,0.002
Cu1.7Se,295,15.35,979730,7.35,0.009
Ge0.85In0.05Pb0.1Te,325,199,33043,0.973,0.437
(SnTe)20Sb2Te3,323,47.33,296943,4.24,0.051
Mg2Zn0.98Sb2,300,277.63,5364,0.756,0.164
Ba8Cu5.18Si9.98Ge30.85,809,-135.5,41600,1.64,0.377
K0.99Ba0.01GaSb4,416,-186.4,14178,0.868,0.236
In0.01Pb0.99Te0.994I0.006,663,-201.6,30625,1.366,0.59
Sr0.16Yb0.03Co4Sb11.82,550,-161,196364,3.45,0.811
AgCuTe0.7Se0.3,623,250.19,11650,0.432,1.052
Rb2Bi8Se12.9805,724,-254.3,3890,0.571,0.319
Cu2Se,295,46.53,282432,2.323,0.078
Ca0.2BaGd1.8NiO5,796,150,272.9,1.629,0.003
Bi0.42Sb1.58Te3,423,236.19,31915,0.971,0.776
SnS0.94Se0.06,300,218,88600,2.55,0.495
Mg0.98Li0.02Ge0.9Si0.1,300,229,13400,5.292,0.04
Sn0.9Pb0.09Zn0.01Se,573,605.36,209,0.641,0.069
Gd2.79Se4,550,-104.7,19937,1.268,0.095
Cu12Sb4S13,622,173.4,15500,0.514,0.563
Nb0.75Ta0.25CoSn0.9Sb0.1,430,-120,116028,4.49,0.16
Cu2.05Cd0.95SnSe4,350,143.2,12135,1.953,0.045
MgAgSb,350,188.36,40909,1,0.508
(Sn0.8Ge0.2)0.91Mn0.09Te,373,57.4,220164,2.528,0.107
As2Te2Se,373,248.48,20.5,0.449,0.001
Rb2Bi8Se12.9415,330,-167.3,11260,0.753,0.138
LaCo4Sb12,373,-89,168675,3.07,0.162
Ca0.2BaGd1.8NiO5,693,158.82,207,1.66,0.002
K8Al8Ge38,100,-7.42,47863,0.885,0
Cu2Se0.88S0.12,750,243.05,15931,0.622,1.135
Cu3Sb0.975Ge0.025S4,573,349.45,4348,0.796,0.382
Cu2Se0.94S0.06,1000,276.16,14092,0.64,1.679
(Cu3SnS4)0.875(Ga2Te3)0.125,429,96,80475,2.192,0.145
BiCu0.925SeO,323,242.45,2788,1.4,0.038
CoGeTe,825,-73.7,18600,6.189,0.013
AgBi0.9Sb0.1Se2,550,250,237.3,0.374,0.019
Zn0.85Cd0.15Sc0.02O1.03,773,-96.47,17857,4.08,0.031
Sn0.91Mn0.09Te,524,94.53,175148,3.29,0.249
Sn1.03Se0.12Te0.865Br0.015,623,103.31,140351,2.434,0.413
Rb2Bi8Se13,526,-306,948,0.439,0.106
Ag1.3Sb0.9Pb15.7Te22.0,423,153.6,833,1,0.008
Ge0.55Pb0.45Te0.8Se0.2,721,142.86,30000,1.175,0.383
Bi2Te3,572,-75.32,15974,0.96,0.054
CuFeS2,100,-473.3,1241,23.86,0.001
Ca6Yb5Sb10,513,11.26,51224,1.397,0.002
Sr0.21Yb0.03Co4Sb12.12,750,-175,186818,3.64,1.179
Cu5.133Sn1.866S7,617,53.98,245652,3.638,0.121
Ba8.07Cu4.89Si41.03,615,-78,123300,2.7,0.171
Ca9Yb2Sb9Ge,327,-5.48,10000,0.709,0
Cu2Se0.92S0.08,550,170.33,35232,0.754,0.746
As2Te2Se,473,228.28,86.6,0.411,0.005
Bi0.9Ag0.1CuSeO,823,334.7,2500,0.435,0.53
Hf0.8Ti0.2CoSb0.8Sn0.2,377,175,58200,2.8,0.24
Ag(Bi0.85Nb0.15)0.9Sb0.1Se2,326,-71,47661,0.661,0.119
GeSe0.85Te0.15,320,15.04,88059,2,0.003
Ta0.84Ti0.16FeSb,304,105,409100,5.493,0.25
Zn2Cu3In3Te8,373,142.3,19207,2.81,0.052
Ge0.85In0.05Pb0.1Te,525,239,34441,1.027,1.006
CaTiO3,640,-264,2450,3.46,0.032
(Hf0.3Zr0.7)0.88Nb0.12 CoSb,301,-114.8,79450,4.15,0.07
CoGeTe,701,-91.91,11702,5.886,0.012
Cu26V2Ge4Sb2S32,497,104.2,111500,2.042,0.295
(Sn0.8Ge0.2)0.8Mn0.2Te,373,73.3,142000,1.984,0.142
Ge0.98Mn0.01Sb0.01Te,298,35.16,507216,6.075,0.031
TmCuTe2,550,123,48859,1.063,0.383
Ag(Bi0.8Nb0.2)0.7Sb0.3Se2,378,-184,10000,0.886,0.144
Nb0.8Ta0.2CoSn0.9Sb0.1,924,-173.9,74894,3.856,0.543
Sb0.05Ge0.95Te,823,207.41,93578,1.982,1.672
Cu7P(S0.65Se0.35)6,325,253.25,223,0.237,0.02
Hf0.7Ti0.3CoSb0.8Sn0.2,473,191,50600,2.81,0.311
Cu2.2Sn0.8Sb0.2Se3.2,723,111,96140,2.2,0.389
Ag2Se0.98,361,-97.82,253770,1.466,0.598
Nd0.15Co4Sb12,800,-195,111000,1.1,1.2
Ba0.10La0.05Yb0.10Co4Sb12,300,-107,300000,1.3,0.3
Cu3.0SbSe4,423,454,2563,1.63,0.137