Formula,T,Seebeck,s,k,ZT
Cu22Sn10S32,400,57.03,195652,3.03,0.084
AgBiSe2.0,478,-188,5664,0.635,0.151
BiCu0.975SeO,323,167.59,2330,0.787,0.027
Cu7P(S0.55Se0.45)6,673,271.5,2300,0.215,0.531
GeSe,673,688.4,114.98,0.985,0.037
Eu2Zn0.98Sb2,623,233,10646,0.435,0.828
(CaZn0.4Ag0.2Sb)0.87(LiZnSb)0.13,673,193.4,20251,0.548,0.93
AgMo6Te8,500,13.7,168000,3.99,0.004
Cu1.85Ag0.15SnSe3,300,249,1070,0.984,0.02
Gd2Se2.92,850,-157.97,15031,1.022,0.312
Cu1.95In0.05Se,572,271.64,6757,1.7,0.198
CsSm2Ag3Te5,385,58.8,88.24,0.607,0
Cu1.875Ag0.125SnSe3,700,312.24,2847,0.419,0.464
Cu2Se0.98S0.02,353,102.63,98235,0.742,0.492
Cu2Se0.96S0.04,550,153.29,43490,0.88,0.639
(PbTe)(MnTe)0.03,773,-252.98,22069,1.125,0.97
Sn0.8Ge0.2Te,373,44.7,410900,4.84,0.065
Cu2Se0.5S0.5,333,46.04,131429,1.189,0.078
MgAgSb0.995In0.005,350,179.5,48545,1.095,0.516
Bi1.2Sb0.8Se2.76Cl0.24,500,-143,23923,0.65,0.376
Bi2Si2Te6,373,119.15,12037,0.849,0.075
Cu5SnSbSe7,673,64.83,242609,3.802,0.18
Co0.97Ni0.03GeTe,776,-104.26,80585,4.473,0.152
CuAgTe0.7Se0.3,443,246.2,6675,0.31,0.579
In4Se2.67Cl0.03,523,-164.8,40910,0.661,0.879
EuCd2Sb2,400,267,9260,1.08,0.244
Bi0.96Pb0.04CuSeO,150,94.33,100000,2.051,0.065
Sn0.965Pb0.01Cd0.025Se,823,298.34,7603,0.425,1.311
(SnTe)8Sb2Te3,623,170.9,77100,1.65,0.85
In3.99Pb0.01Se3,405,-221,10700,0.97,0.218
GeSe,424,737.68,15.52,2.01,0.002
Tl2GeTe3,473,234.5,3030,0.27,0.292
TiZr0.025NiSn,630,-193.28,65846,2.689,0.587
Sn1.03Se0.12Te0.88,623,88.2,150000,2.887,0.252
Cu22Sn9SbS32,500,109.51,73711,1.929,0.229
Ca3Al0.95Zn0.05Sb3,722,272,4283,0.718,0.294
Cu3Sb0.997In0.003Se4,573,288.4,8410,1.115,0.364
Pb0.99Tl0.01Te,497,217.53,36622,1.461,0.589
Ag2.0Se0.5Te0.5,300,-90.7,61743,0.61,0.25
Cu26V2Ge5SbS32,309,39.9,334375,3.648,0.045
CrO0.09N0.9,275,-46.4,33713,2.681,0.007
Rb2Bi8Se12.909,823,-185,11200,0.62,0.509
Ag1.3Sb0.9Pb15.7Te22.0,373,448.78,940.25,1.044,0.04
Cu2Se0.98S0.02,750,205.97,27926,0.822,1.081
Ti0.98Mn0.02NiSn0.98Sb0.02,297,-107.68,162252,6.128,0.091
Cu2Zn0.6Fe0.4SnSe4,773,281.5,3670,0.854,0.263
Cu12Sb4S13,625,112.69,83333,1.515,0.437
FeNb0.92Ti0.08Sb,500,168,200000,9.4,0.3
NbCo0.9Ni0.1Sn,600,-170.59,78333,7.274,0.188
TmCuTe2,320,73.7,95941,1.577,0.106
Cu2Se0.94S0.06,333,102.63,102454,0.732,0.491
Cu11ZnSb4S13,322,130.6,9622,0.43,0.123
Mg3.5Gd0.045Sb2,300,-196.43,23049,1.207,0.221
In0.015Pb0.985Te0.994I0.006,533,-220.1,24200,1.44,0.437
Tl8.97Sb1.03Te6,385.5,148.3,33000,0.58,0.475
Al0.01Ge0.99Te,373,43.93,539286,6.273,0.062
Cu1.97In0.03Se,295,95.6,107383,0.862,0.336
Bi1.2Sb0.8Se2.76Cl0.24,300,-89,39724,0.72,0.131
Mo3Sb7I1.5,523,21.1,422000,5.13,0.019
LaCo0.95Ni0.05O3,300,302.4,1496,0.551,0.072
Cu26Ti2Sb3Ge3S32,596,123.2,89063,1.583,0.493
FeNb0.92Hf0.08Sb,500,167,214728,6.84,0.438
CrO0.09N0.9,200,-52.3,29773,4.594,0.004
Ge0.58Sb0.22Te0.8(AgSnSe2)0.2,623,208.1,35500,0.71,1.366
CaZn0.4Ag0.2Sb,573,111.3,57522,1.01,0.404
Rb2Bi8Se12.961,428,-218.5,8480,0.587,0.295
Tl9.0Bi0.99Te6.0,385,209,18400,0.455,0.68
Ge0.55Pb0.45Te0.3Se0.7,569,299.38,4911,0.636,0.484
GeSe0.6Te0.4,776,132.78,101866,2.125,0.656
Cu2ZnSn0.95Ag0.05Se4,473,50.7,198718,3.117,0.078
Li0.03Cu1.8Bi0.05Se,761,135.5,45455,0.964,0.659
(Sn0.985In0.015Te)0.9(AgCl)0.1,623,96.67,231461,3,0.449
Rb2Bi8Se12.9909Cl0.0091,823,-191.2,8750,0.53,0.497
Mg3.5Gd0.03Sb2,300,-197.5,19493,1.082,0.211
FeNb0.86Hf0.14Sb,300,84.47,668992,7.339,0.195
Nd3Te4,1073,-78.1,144600,3.022,0.313
In0.005Pb0.995Te0.994I0.006,533,-164,55300,1.593,0.498
Cu2ZnSnSe4,373,116.62,19531,3.988,0.025
Ag1.2Sb0.8Pb14.9Te22.7,473,344,1547,1.05,0.082
Ag0.94CuSe,625,212.1,17589,0.593,0.834
AgBi0.95Pb0.05Se2.12,350,334,4265,0.588,0.283
Cu3P0.6Ge0.4S4,500,82,73200,1.52,0.162
SnTe0.25AgSbSe2,600,132.2,77181,1.608,0.503
Tl8.99Sb1.01Te6,326,107,53300,0.71,0.28
In0.005Pb0.995Te0.996I0.004,481,-207.4,37350,1.636,0.472
Cu1.95In0.05Se,870,328.71,2023,1.938,0.194
(SnTe)0.96(CuSbTe2)0.04,818,164.2,93249,2.137,0.963
Bi0.8Pb0.1Yb0.1CuSeO,543,121.71,20000,0.629,0.256
(PbTe)0.15(Ag2Te)0.85,350,-104.29,79473,0.85,0.549
AgCuTe0.6Se0.4,422,217.5,8835,0.305,0.671
GeSe0.75Te0.25,678,39.05,72388,1.685,0.044
Cu2.9Ag0.1ErTe3,700,85,72000,0.68,0.536
Ag2Te,550,-119.7,46550,0.601,0.615
Ca0.15BaGd1.85NiO5,1000,173.53,425.07,1.664,0.008
Bi0.98Pb0.02CuSeO,50,39.69,120913,3.911,0.002
Cu1.95S0.5Se0.5,375,71.92,31634,1.009,0.061
BiSb(Se0.96Br0.04)3,500,-169,16436,0.55,0.427
Mg3.5Gd0.03Sb1.97Te0.03,400,-223.93,19198,0.874,0.441
Ba8.02Cu5.04Si6Ge34.93,766,-134.33,44660,1.371,0.45
Cu3Sb0.9Ge0.1S4,373,172.2,25800,1.703,0.168
Ba0.44Co4Sb11.90,300,-68,637800,2.8,0.1
FeNb0.92Zr0.08Sb,500,174.5,196124,9.525,0.313
Mg2Zn0.96Sb2,773,160.26,20921,0.961,0.432
Ge0.55Pb0.45Te0.2Se0.8,300,384.38,2850,0.805,0.01
Li0.01Cu1.85Se,603,45.71,290385,3.546,0.103
Dy0.02Co4Sb12,800,-131,32300,3.9,0.1
Cu2ZnSn0.95Ag0.05Se4,673,77,133700,2.134,0.255
Ge0.58Sb0.22Te0.8(AgSnSe2)0.2,323,151.6,43900,0.74,0.44
Nb0.85Ta0.15CoSn0.9Sb0.1,338,-103.27,125957,4.979,0.091
(Bi0.23Sb0.77)2Te3,300,229,54942,0.885,0.977
CuAgTe0.6Se0.4,422,231.52,6783,0.348,0.441
Sn0.965Pb0.01Cd0.025Se,423,347.7,3587,0.696,0.264
Co4Sb11.95Te0.05,850,-218,22200,4.6,0.2
Hf0.9Ti0.1CoSb0.8Sn0.2,1088,212,55035,3.31,0.819
Cu2.1Se,770,126.73,104054,2.025,0.635
Cu3.0SbSe4,473,409,3227,1.37,0.186
Ba8Cu5Si25Ge16,760,-111,68550,1.924,0.332
Cu2Se0.5S0.5,426,52.97,148286,1.616,0.11
Cu3SbSe4,323,387,2310,2.796,0.04
CaZn0.4Ag0.2Sb,472,93.36,77844,1.143,0.28
Ag3.4Mo9Se11,350,71,58000,1.26,0.08
K0.995Ba0.005GaSb4,602,-292.86,7053,0.556,0.655
La2.0Co4Sb12,373,-15.4,358974,2.52,0.013
Ag3.5Mo9Se11,645,123.7,36400,1.124,0.32
Ca3AlSb3,722,419,500,0.67,0.091
Cu3ErTe3,400,48.6,244890,2.38,0.097
Mg3.5Ho0.01Sb1.97Te0.03,600,-281.91,12875,0.789,0.778
Cu2.025Cd0.975SnSe4,350,176.3,5862,2.236,0.029
Cu1.55S,350,13.6,536538,3.908,0.009
(Cu0.004Pb0.996Te)(MnTe)0.03,773,-173.68,60276,1.443,0.974
Ag0.4Sb1.1Pb19.6Te18.8,423,-1,16247,1.555,0
YbCd1.8Zn0.2Sb2,350,133.74,64873,1.844,0.22
Y0.2Bi1.8Te3,423,-147.4,72086,0.58,1.142
NbCo0.92Ni0.08Sn,704,-116.47,111395,6.774,0.157
Cu1.99In0.01Se,870,245.5,20970,0.775,1.445
Ta0.96Ti0.04FeSb,570,245.6,67300,5.195,0.45
Mg2Zn1.02Sb2,673,88.74,7152,1.001,0.038
Tl9.0Sb0.98Te6,503,177,27100,0.537,0.795
EuZn2Sb2,650,181.2,59000,1.417,0.889
GeSe0.65Te0.35,728,112.47,93657,1.981,0.435
(GeTe)0.7(AgSnSe2)0.3,523,44.1,61935,1.385,0.045
Nb0.85Ta0.15CoSn0.9Sb0.1,728,-154.1,93617,4.263,0.38
Ta0.96Ti0.04FeSb,670,262.7,56925,4.82,0.546
Ba8.01Ga15.89Zn0.006Sn30.1,420,382.8,11985,0.877,0.841
(GeTe)0.9(AgSnSe2)0.1,623,63.35,236129,3.192,0.185
Ge0.99Mn0.01Te,498,63.23,300000,4.406,0.136
Cu7P(S0.75Se0.25)6,325,402.96,16.44,0.239,0.004
Sm0.2Bi1.8Te3,373,-142.6,74600,0.734,0.766
Ti0.95Al0.05O2,296,-238.95,2104,5.67,0.006
Bi0.95Ba0.05CuSeO,825,289.5,3930,0.6,0.453
(Cu3SnS4)0.915(Ga2Te3)0.085,554,84.85,131670,3.181,0.165
Ba0.03Co4Sb12,800,-161.4,37234,3.83,0.204
Sr0.16Yb0.03Co4Sb11.82,300,-116,296818,4.05,0.296
(SnTe)10Sb2Te3,723,177.9,77080,1.66,1.062
Yb13CaMnSb11,773,153.83,25000,0.877,0.468
FeNb0.88Ti0.12Sb,700,182,130000,6.5,0.464
Zn0.85Cd0.15Sc0.02O1.03,473,-70,20000,5.75,0.008
Ba2CoRuO6,518,17,223000,1.455,0.023
TaFeSb,870,114.3,4155,4.644,0.01
Bi0.96Ag0.04CuSeO,623,288.4,1947,0.52,0.194
Yb7Ca6BaMgSb11,300,59.94,10942,0.528,0.022
(Sn0.985In0.015Te)0.95(AgCl)0.05,523,76.64,371910,4.697,0.243
(Cu0.002Pb0.998Te)(MnTe)0.03,423,-207.72,62069,1.608,0.705
Cu0.99Pd0.01FeS2,200,-345,5425,12.84,0.01
Cu11.7Gd0.3Sb4S13,723,144.1,73220,1.33,0.833
Bi1.9Nb0.1Te3,366,-106.3,64902,0.803,0.334
AgBiSe2.0,625,-236,4000,0.443,0.314
CuAgTe0.5Se0.5,349,143.09,9689,0.463,0.15
Cu1.85Se,502,32.99,348077,3.939,0.048
Ag2.0Se0.5Te0.5,345,-97.84,65000,0.66,0.325
FeNb0.96Ti0.04Sb,500,206,113000,10.31,0.233
ZrNiPb0.9Sn0.8Bi0.02,771,-181,133120,5.626,0.598
Ca0.15BaGd1.85NiO5,1179,205.88,500.47,1.601,0.016
Cu1.99In0.01Se,473,130,55405,0.9,0.5
Ag0.97Cr0.95Bi0.05Se2,753,188.35,6601,0.465,0.38
Cu7P(S0.25Se0.75)6,523,221.4,4670,0.312,0.384
Co0.99Ni0.01GeTe,327,-115.11,57181,6.955,0.036
(SnTe)15Sb2Te3,623,131.03,124937,2.39,0.559
(Sn0.8Ge0.2)0.85Mn0.15Te,373,67.7,179000,1.975,0.157
Ca5In1.9Zn0.1Sb6,422,144,20460,1.108,0.15
In0.005Pb0.995Te0.998I0.002,378,-222,33594,1.644,0.382
Cu2.025Cd0.975SnSe4,700,204.2,6259,0.75,0.244
Li0.03Cu1.81Bi0.04Se,401,53.75,68966,1.42,0.056
TaFeSb,970,117.86,5817,4.457,0.018
(SnTe)0.86(CuSbTe2)0.14,524,84.3,161100,2.81,0.213
Cu3Sb0.98Ge0.02S4,323,192,22857,3.428,0.079
Ge0.9Mn0.05Sb0.05Te,298,75.5,162900,2.941,0.094
CuGa0.99Mn0.01Te2,868,231,29304,1.645,0.83
Ge0.98Mn0.02Te,498,72.9,273196,4,0.181
Cr1.99Mn0.01Ge2Te6,515,332,2734.38,0.716,0.217
Li1.1Co0.85Ni0.15O2,923,298,483.69,1.607,0.025
(PbTe)(MnTe)0.03,623,-255.26,25379,1.16,0.888
AgBi0.9Sb0.1Se2,525,429.69,362.6,0.419,0.071
(Sn0.8Ge0.2)0.94Mn0.06Te,773,127.2,113830,2.053,0.693
Mg3.07Sb1.5Bi0.48Se0.02,600,-298.48,12053,0.671,0.96
Ag0.01Cr1.99Se3,725,159.29,22786,1.75,0.24
Cu3Sb0.85Ge0.15S4,573,184.3,31350,1.178,0.518
Cu3.0SbSe4,348,498,2302,2.15,0.092
Ag2Se0.98,307,-131,143400,1.074,0.711
Sn0.99Ce0.01Te,723,123,107600,2.6,0.453
Li1.01Co0.85Ni0.15O2,323,244.5,0.04,0.316,0
Eu(Zn0.7Cd0.3)2Sb2,600,214.8,33333,1.16,0.795
Sr0.21Co4Sb12.25,400,-147,195454,4.29,0.394
Mg3Sb1.9Bi0.1,750,366.2,1888,0.6,0.327
Cu1.99S0.5Se0.5,300,153.94,3564,0.413,0.061
Ag2.0Se0.9Te0.1,390,-132,111376,0.944,0.802
BaGd2NiO5,750,427.2,20.95,1.656,0.002
AgSb0.99Mn0.01Te2,341,85.57,49067,0.963,0.127
FeNb0.88Ti0.12Sb,300,103,430000,11.3,0.121
Ca0.25BaGd1.75NiO5,687,155.15,212.3,1.327,0.003
Cu2Se,374,42.57,320270,2,0.109
CrO0.09N0.9,150,-45.2,24147,4.194,0.002
Nd2.86Te4,373,-42,151400,2.066,0.048
Ba0.97K0.03Zn2As2,723,101.85,58182,2.093,0.208
Ca1.58Yb3.42Al2Sb6,610,46.69,21964,3.442,0.008
Sn0.96Pb0.01Cd0.035Se,573,390.67,2698,0.415,0.569
K0.975Ba0.025GaSb4,324,-134.7,23542,1.125,0.123
Gd2Se2.98,550,-167.2,28600,1.506,0.292
NbCo0.94Ni0.06Sn,382,-56.18,188941,9.536,0.024
LiCo0.92Ni0.08O2,423,302.07,0.01,1.409,0
Ca5Ga1.95Zn0.05Sb6,773,170.93,14941,0.905,0.373
Tl9.0Bi0.98Te6.0,443,217.4,17545,0.42,0.875
Cu11.5Gd0.5Sb4S13,625,122.64,80821,1.445,0.526
PbTe,428,-269.84,24079,1.58,0.482
Yb9Ca4BaMgSb11,300,59,17350,0.503,0.036
Bi0.88Pb0.06Yb0.06CuSeO,640,167.11,18641,0.484,0.688
Ge0.87Mn0.05Sb0.08Te,498,163.6,85600,1.665,0.7
(SnTe)0.92(CuSbTe2)0.08,526,74,195470,3.044,0.185
Ba0.15Yb0.01Co4Sb12.08,300,-125,178900,3,0.2
ZrNiPb0.9Sn0.8Bi0.02,871,-183.6,128800,5.903,0.641
CuAgTe0.5Se0.5,383,129.79,8910,0.391,0.147
ZrNiPb0.96Sn0.2Bi0.02,871,-152.2,210000,6.26,0.677
Cr1.99Mn0.01Ge2Te6,416,346.9,1609.38,0.763,0.106
Bi0.875Ba0.125CuSeO,725,212.82,9471,0.718,0.48
Eu14MgBi11,914,99.32,47700,1.63,0.267
Ge0.95Mn0.05Te,398,56.77,306186,4.289,0.092
Mg2.9875Na0.0125Sb2,373,107.8,26523,1.563,0.074
SnTe0.15AgSbSe2,700,140.4,76870,1.71,0.626
AgBiSe2.0,375,-166,8310,0.67,0.128
Bi0.92Ag0.08CuSeO,573,293.4,2020,0.425,0.234
Ge0.89In0.05Pb0.06Te,425,170.76,52273,1.213,0.534
Mg3.5Ho0.02Sb1.97Te0.03,600,-268.09,16496,0.824,0.863
Cu1.6S,300,8.45,387019,3.408,0.002
Cu5Sn2S7,678,75,139506,2.888,0.184
La0.25Ca0.75TiO3,321,-48,245200,4.063,0.045
FeNb0.92Ti0.08Sb,900,240,79000,6.3,0.65
Ca10InSb9,772,209,4250,0.72,0.199
Sn1.03Se0.12Te0.87Br0.01,523,56.17,324561,3.201,0.143
Rb2Bi8Se12.9415,724,-213.6,7841,0.59,0.439
La0.15Ca0.85TiO3,538,-107,73120,3.496,0.135
AgBiSe2.0,528,-213.7,3678,0.574,0.155
Zn0.85Cd0.15Sc0.02O1.03,973,-121,15400,3.33,0.066
Ba7.97Ga15.95Sn30.09,500,360.56,10558,0.901,0.762
BiSbSe2.88Cl0.12,600,-264,4390,0.44,0.417
Yb8Ca5BaMgSb11,900,195.7,12400,0.611,0.7
Cu3P0.9Ge0.1S4,350,127,7375,0.792,0.053
BaBiTe2.95Se0.05,525,-191.8,8000,0.409,0.365
GeSe0.5Te0.5,630,102.1,157222,2.034,0.508
Ag0.02Cu1.955S0.5Se0.5,375,151,5809,0.633,0.079
Ge0.98Mn0.01Sb0.01Te,773,147.74,143300,2.674,0.904
YbCd1.9Zn0.1Sb2,450,166.6,51250,1.645,0.389
Ca1.58Yb3.42Al2Sb6,420,29,23333,3.825,0.002
Al0.03Ge0.97Te,473,69.11,375000,4.949,0.171
(PbTe)(MnTe)0.03,523,-246.14,31862,1.323,0.763
Cu26V2Ge4Sb2S32,309,66.51,175410,2.571,0.093
Rb2Bi8Se12.9935,823,-219.6,7386,0.559,0.524
Ti0.99Mn0.01NiSn0.99Sb0.01,697,-167.3,106650,5.39,0.386
PbTe,529,-307.61,17961,1.3,0.713
Ce0.75Fe3CoSb12,783,90.2,96585,7.278,0.085
SnS0.94Se0.06,573,305,20600,1.33,0.826
Bi1.9Nb0.1Te3,572,-105.5,34481,0.74,0.297
Li1.04Co0.85Ni0.15O2,423,249,0.48,2.008,0
Cu12Sb4S13,522,123.2,30440,0.653,0.365
Bi0.88Pb0.06Yb0.06CuSeO,446,132.57,30968,0.573,0.423
Cu26V2Ge3Sb3S32,309,116.2,57368,1.692,0.141
Ge1.04Te,323,72,463000,5.24,0.17
Ba0.11Yb0.03Co4Sb12,600,-166.9,119000,3.113,0.634
Ge0.95Mn0.05Te,648,140.32,160825,2.546,0.806
Ba8.07Cu4.89Si41.03,763,-91,103700,2.88,0.228
Ca1.58Yb3.42Al2Sb6,327,21,30357,4,0.001
Sn0.96Pb0.01Cd0.035Se,823,283.77,8864,0.355,1.653
Na0.36Co4Sb12,850,-190,117000,1.8,1
EuZn2Sb2,500,161.7,78700,1.674,0.615
SnTe,763,120.24,140828,2.934,0.533
Sr14MgBi11,914,127.84,50694,1.35,0.561
Cu1.875Ag0.125SnSe3,300,173.74,3184,1.102,0.026
(Cu3SnS4)0.875(Ga2Te3)0.125,741,170.2,34493,1.385,0.535
Li1.1Co0.85Ni0.15O2,1023,284.5,1114.24,1.316,0.07
Cu5Sn2S6.65Cl0.35,300,41.48,168657,2.838,0.031
Ca9Yb2Sb7Ge3,327,20.74,309,1.019,0
(SnTe)0.98(CuSbTe2)0.02,320,25.55,513706,6.988,0.015
Sr0.21Co4Sb12.25,600,-176,146364,3.68,0.739
Cu2Se0.9S0.1,520,86.14,65143,0.696,0.361
Pb0.985Zn0.03Te,622,-276.36,24868,1.181,1
Sn1.03Se0.12Te0.875Br0.005,723,151.13,84211,2.182,0.61
Mg3.5Gd0.02Sb2,600,-295,9147,0.77,0.62
Ca3Co3.9Ti0.1O9,500,149.46,5964,2.434,0.027
Bi0.94Pb0.06CuSeO,50,26.29,189824,2.166,0.003
Ge0.89In0.05Pb0.06Te,525,185.71,54245,1.227,0.801
CuMo6Te8,600,11.52,178000,3.64,0.004
Zn0.9Cd0.1Sc0.02O1.03,1173,-160,26500,2.83,0.281
Cu22Sn9SbS32,400,90.58,87805,2.294,0.126
AgBi0.85Sb0.15Se2,500,510.64,239.6,0.397,0.079
In0.005Pb0.995Te0.996I0.004,428,-200,42700,1.756,0.416
Cu22Sn9.25Sb0.75S32,600,112.62,91139,1.885,0.368
Ti0.925Mn0.075NiSn0.925Sb0.075,297,-72.22,300000,7.128,0.065
Cu2.82Ag0.18SbSe4,398,381,7510,1.15,0.377
Ge0.55Pb0.45Te0.5Se0.5,569,293.17,7534,0.502,0.788
FeNb0.80Ti0.20Sb,700,150,165000,5.3,0.49
Sn1.03Se0.12Te0.875Br0.005,823,163,66667,2.2,0.663
(SnTe)0.88(CuSbTe2)0.12,818,151.1,92485,1.776,0.972
Ge0.98Mn0.02Te,698,145.16,137113,2.385,0.846
Ag8GeTe6,607,324,1760,0.309,0.368
K0.99Ba0.01GaSb4,602,-245.92,11141,0.612,0.663
AgBiSe2,500,421.88,240,0.518,0.041
In4Pb0.01Sn0.03Se2.9Cl0.02,323,-205,7453,0.946,0.107
(SnTe)8Sb2Te3,423,120.26,117848,1.89,0.381
Ta0.98Ti0.02FeSb,570,263,46900,6.133,0.301
Cu2Sn0.95Fe0.05Se3,823,185,29592,1,0.85
Mg2.994Na0.006Sb2,663,213,12375,0.865,0.43
BiSbSe2.76Cl0.24,700,-245,6188,0.41,0.634
Cu2Zn0.2Fe0.8SnSe4,773,221.39,6210,0.693,0.34
AgBiSe2.0,296,-154,7232,0.645,0.079
AgCuTe0.6Se0.4,320,219.23,11068,0.536,0.318
Cu2.82Ag0.18SbSe4,373,370,8522,1.24,0.36
(Cu0.001Pb0.999Te)(MnTe)0.03,323,-227.02,46069,1.813,0.423
NbCo0.92Ni0.08Sn,600,-105,126512,7.452,0.112
Ca3Co3.7Ti0.3O9,700,248,5226,2.012,0.112
Cu10.5Ni1.5Sb4S13,715,194.2,23875,0.793,0.811
Cu3P0.7Ge0.3S4,500,97,47000,1.2,0.184
(GeTe)0.7(AgSnSe2)0.3,423,36.02,67097,1.375,0.027
Cu11ZnSb4S13,720,245.6,7710,0.307,1.091
Ag1.3Sb0.9Pb15.7Te22.0,623,40,1670,1.05,0.002
Ba8Cu5.18Si9.98Ge30.85,466,-101,65700,1.68,0.186
Mg1.98Ag0.02Zn0.98Sb2,300,94.71,62222,1.078,0.155
Sn0.965Pb0.01Cd0.025Se,373,336,3317,0.783,0.178
Nb0.8Ta0.2CoSn0.9Sb0.1,430,-116.15,118156,4.727,0.145
Cu7P(S0.65Se0.35)6,422,297.4,559,0.209,0.1
Ba8.01Ga15.88Zn0.009Sn30.11,420,423,6360,0.829,0.577
Ca10ZnSb9,473,32.46,35.77,0.596,0
FeNb0.88Hf0.12Sb,1200,246.1,82946,4.186,1.457
Tl9.0Bi0.95Te6.0,325,140,37455,0.592,0.403
Ce0.75Fe3CoSb12,423,79.3,132190,7.025,0.05
Ca10InSb9,398,125.94,2218,0.791,0.018
Al0.0075Sb0.1Ge0.8925Te,823,259.9,56305,1.511,1.984
Rb2Bi8Se12.961,823,-202,11818,0.543,0.731
AgCuTe0.5Se0.5,320,97.32,5534,0.341,0.049
Cu2.5Sn0.5Sb0.5Se3.5,372,34.29,455113,5.026,0.04
Al0.01Ge0.99Te,773,144.6,191071,3.06,0.962
Ag0.4Sb1.1Pb19.6Te18.8,673,-143,37000,1.367,0.372
CuFe0.96In0.04S2,390,-357.9,3916,3.337,0.059
Ge0.55Sb0.25Te0.8(AgSnSe2)0.2,723,191.3,37419,0.875,1.19
Mg1.98Li0.02Zn0.98Sb2,573,129.63,55026,1.012,0.524
Ag0.97Cr0.95Bi0.05Se2,603,126.69,12336,0.457,0.261
Cu11.6Gd0.4Sb4S13,724,145.2,66010,1.306,0.771
Ca0.99Yb4.01Al2Sb5.84Ge0.16,304,180.3,607,1.25,0.005
Cu2CdSnSe4,350,238,2741,2.35,0.023
Bi0.825Ba0.175CuSeO,725,201.28,11635,0.586,0.686
Eu(Zn0.9Cd0.1)2Sb2,350,138,95200,2.08,0.305
Ag2.0Se0.5Te0.5,375,-104,64000,0.67,0.387
Er0.02(Bi0.23Sb0.77)1.98Te3,400,237.52,40731,0.845,1.088
CuAgTe0.7Se0.3,393,261.68,7133,0.216,0.887
Ca0.2BaGd1.8NiO5,489,211.03,73.47,1.654,0.001
AgBi0.85Sb0.15Se2,525,526.6,238.8,0.418,0.083
Ge0.55Pb0.45Te0.5Se0.5,470,300.62,6875,0.529,0.58
Rb2Bi8Se12.9415,428,-194.4,8030,0.664,0.196
Rb2Bi8Se12.9805Cl0.0195,823,-167.55,12132,0.604,0.464
TlCr5Se8,723,296,4880,0.68,0.455
Ce0.2Bi1.8Te3,373,-141.2,84083,0.577,1.084
Mg3Sb2,565,296,688,0.89,0.038
Bi0.92Ag0.08CuSeO,323,184.7,2420,0.526,0.051
Sn0.985In0.015Te,423,63.65,420230,5.722,0.126
SnSe0.9S0.1,573,305.66,4189,0.805,0.256
Cu2.025Cd0.975SnSe4,600,194.8,6879,0.993,0.158
CuGa0.97Mn0.03Te2,525,224,21053,3.184,0.174
LiCoO2,923,742.07,27.52,2.671,0.005
Ag0.97Cr0.97Sb0.03Se2,703,150,15772,0.405,0.615
Sm0.15Co4Sb12,300,-131,210000,2.3,0.3
CoSb3.0,373,-218,3125,6.1,0.009
Ag0.01Sn0.99Se0.9S0.1,666,410.26,837,0.237,0.396
Yb14MgBi11,717,78.64,62393,1.833,0.151
(PbTe)0.05(Ag2Te)0.95,550,-154.6,29000,0.469,0.822
LiGe11.5Sb2Te15,523,243,46630,1.375,1.06
Ag0.97Cr0.99Bi0.01Se2,503,111.86,12368,0.453,0.172
Sr14.8Ga28.6Ge56.6,408,-87.3,108391,2.151,0.157
Cu12Sb4S13,324,73.68,103319,1.511,0.12
Gd2.79Se4,850,-150.4,15130,1.26,0.231
Pb0.98Zn0.035Te,719,-273.7,25860,1.141,1.221
Mg3.5Ho0.04Sb2,700,-310.49,9655,0.717,0.909
Ca2Yb9Sb10,327,1.63,150204,1.78,0
Sb2Si2Te6,373,139.8,30275,0.861,0.256
Gd2.84Se4,450,-77.9,31600,1.287,0.067
Cu11.5Gd0.5Sb4S13,425,98.55,90336,1.406,0.265
Nb0.8 Co0.92Ni0.08Sb,1123,-213,44510,1.69,0.9
Ag0.6Sb0.9Pb19.5Te19.1,673,-198,27700,1.7,0.42
Sr14.1Ga29.6Ge56.3,669,-161,38620,1.625,0.412
In0.015Pb0.985Te0.994I0.006,481,-219.5,25300,1.515,0.389
TiZr0.015NiSn,423,-176.49,47231,2.38,0.277
Cu5SnSbSe7,473,43.79,370500,4.629,0.073
Ca3AlSb3,822,390,516,0.622,0.101
Mg3.5Gd0.045Sb2,500,-244.29,19592,0.939,0.623
Cu2.075Sn0.925S3,500,61.15,225000,3.271,0.129
Rb2Bi8Se12.9805,428,-257.2,5455,0.619,0.25
(PbTe)0.15(Ag2Te)0.85,550,-174.7,24300,0.523,0.772
Ag0.98Nb0.02BiSe2.0,577,-223.7,6305,0.487,0.374
(Zn0.95In0.05)4Sb3,373,155.8,24528,0.843,0.263
As2Te2.8Se0.2,323,192.08,921.06,0.619,0.018
ZrNiSn,376,-101.04,36966,4.22,0.034
Mg3.07Sb1.5Bi0.47Se0.03,400,-293.48,8602,0.735,0.403
Yb12CaBaMgSb11,1000,207.46,13466,0.678,0.855
Ba0.9K0.1Zn2As2,623,71,106670,2.901,0.115
Cr1.99Fe0.01Ge2Te6,713,315.46,2488.37,0.623,0.284
Cu1.9Ag0.1SnSe3,600,194.44,4133,0.629,0.149
Ti0.98Mn0.02NiSn0.98Sb0.02,697,-153.7,152318,5.56,0.451
Ag8Sn0.7Ga0.3Se6,426,-442.99,132,0.243,0.069
Yb13.44Ce0.4Mn1.09Sb11.07,473,102.6,28150,0.742,0.189
Bi0.96Pb0.04CuSeO,50,29.63,213745,2.79,0.003
Bi2.0S2.91Se0.09,523,-483,464,0.585,0.097
Cu2SnSe3,800,214.65,10333,0.737,0.517
Yb0.19Co4Sb12,300,-141,164000,2.9,0.3
Cu2.1Cd0.9SnSe4,400,134.7,22184,1.45,0.111
Mg2.16(Si0.4Sn0.6)0.97Bi0.03,300,-120.35,203876,2.765,0.32
Ag8Sn0.6Ga0.4Se6,601,-303.5,2343,0.296,0.439
Ba0.24Co4Sb11.87,300,-88,323400,3.4,0.1
Ti0.95Mn0.05NiSn0.95Sb0.05,797,-160,168874,5.597,0.616
Ca0.15BaGd1.85NiO5,1275,221.32,546.52,1.57,0.022
Cu2SnSe3,500,125,15909,1.06,0.117
Cu3Sb0.998In0.002Se4,373,284.5,4444,1.92,0.07
Ag0.97Cr0.95Bi0.05Se2,703,162.71,8902,0.464,0.357
Pb0.99Tl0.01Te,301,119.81,59076,2.256,0.113
Eu(Zn0.9Cd0.1)2Sb2,450,161.5,81400,1.75,0.546
Cu2.5Sn0.5Sb0.5Se3.5,473,42.86,370149,4.645,0.069
Cu2.7Ag0.3ErTe3,800,117,43560,0.66,0.723
AgBiSe2.0,660,-272,4251,0.467,0.444
SnS,500,624,2.5,0.875,0.001
Yb13.44Ce0.4Mn1.09Sb11.07,1173,230.4,11750,0.726,1.008
GeSe0.9Te0.1,320,75.31,2974,1.932,0.003
Ca2Yb9Sb10,419,4.89,132653,1.944,0.001
SnTe,714,99,177515,3.328,0.379
Ca0.15BaGd1.85NiO5,513,224.26,123.54,2.04,0.002
Ge0.99Mn0.01Te,398,43.87,432990,5.914,0.056
CuFe0.92In0.08S2,510,-372.5,2630,2.037,0.091
Cr2Ge2Te6,320,573.71,46.88,0.916,0.005
Eu0.34Co4Sb12,300,-71,416200,2,0.1
Bi2.0S3.0,523,-627,72.4,0.505,0.029
Ag(Bi0.85Pb0.15)0.9Sb0.1Se2,576,313.89,522,0.461,0.064
Zn0.85Cd0.15Sc0.02O1.03,873,-108,16800,3.8,0.045
Yb12CaBaMgSb11,600,127.07,21416,0.719,0.289
(Ag0.1Sb0.1Sn0.8)(S0.1Se0.1Te0.8),593,129.9,82710,1.392,0.595