Formula,T,Seebeck,s,k,ZT
Yb11Ca2BaMgSb11,600,130.4,18950,0.671,0.288
Ge0.55Pb0.45Te0.2Se0.8,721,210.63,6790,0.865,0.031
Ag1.2Sb0.8Pb14.9Te22.7,573,289.6,2112,0.955,0.106
(SnTe)20Sb2Te3,523,87.41,186370,3.42,0.218
Mg3.5Ho0.04Sb1.97Te0.03,600,-254,18676,0.838,0.863
Li2Ge11Sb2Te15,623,180.67,103889,1.737,1.217
Yb14MgBi11,424,36.14,70192,1.679,0.023
MgAgSb,450,206.36,36909,0.971,0.729
Mg3Sb1.6Bi0.4,332,142,3455,0.95,0.024
Tl4SnTe3,423,145,20000,0.448,0.39
Cu1.99In0.01Se,672,193.5,31757,0.838,0.966
Ag(Bi0.9Pb0.1)0.7Sb0.3Se2,326,413.5,702,0.634,0.062
Cu2Sn0.8Zn0.2S3,623,95.4,81200,1.554,0.296
Yb13.49Ce0.39Mn1.05Sb11.08,300,40,43723,0.769,0.027
Zn0.9Cd0.1Sc0.03O1.045,373,-83.2,52600,6.6,0.021
K0.975Ba0.025GaSb4,416,-176.87,24338,0.977,0.324
Ag0.97Cr0.97Bi0.03Se2,403,85.38,18008,0.43,0.123
FeNb0.88Hf0.12Sb,700,179.7,192250,5.186,0.845
CoGeTe,776,-79.15,14894,6.038,0.012
Ge4Sb2Te7,623,107,88335,1.785,0.357
Pb0.975Zn0.04Te,323,-150,130530,2.753,0.345
(SnTe)0.92(CuSbTe2)0.08,430,51.37,259589,3.788,0.078
GeTe,298,27.1,741237,8.043,0.02
In4Pb0.01Sn0.03Se2.9Cl0.06,523,-233,8910,0.666,0.39
Ca5In1.9Zn0.1Sb6,522,162,20860,1.008,0.273
Mn2Cu3In3Te8,675,415,565,0.895,0.073
(Cu0.003Pb0.997Te)(MnTe)0.03,323,-225.44,56000,1.771,0.519
Mg3.5Ho0.01Sb2,300,-199.3,2217,1.118,0.024
Tl0.22Co4Sb12,50,-23.3,306060,2.903,0.003
Cu2Se0.9S0.1,426,57.92,66000,0.635,0.149
Bi0.9Ag0.1CuSeO,873,336,2600,0.425,0.603
Cu5Sn2Se7,598,44.2,302200,3.856,0.092
(SnTe)0.84(CuSbTe2)0.16,529,73.9,196271,3.056,0.186
ZrNiSn0.99Sb0.01,309,-129.2,160460,7.35,0.1
Mg3.5Ho0.04Sb2,400,-226.1,18673,1.139,0.335
Sn0.87Mn0.1Bi0.03Te,423,72,218000,4,0.12
Cu5Sn2S6.65Cl0.35,415,58.24,143949,2.4,0.084
Sn0.97Mn0.03Te,772,138.1,121893,3.053,0.588
Sn0.8Ge0.2Te,573,67.6,256000,4.367,0.153
Sn0.8Ge0.2Te,673,85.8,203850,3.663,0.276
Eu2ZnSb2,300,250,3231,0.43,0.141
Ba8Ga15.88Zn0.007Sn30.12,500,400,12310,0.919,1.072
(Sn0.985In0.015Te)0.85(AgCl)0.15,323,58.53,420225,4,0.116
K0.99Ba0.01GaSb4,324,-143.2,11614,1.12,0.069
Sn1.03Te,723,126.9,98200,3.704,0.309
Sn0.99Mn0.01Te,524,48.44,383432,6.342,0.074
Ba8.02Cu4.98Si35Ge5.99,466,-65.3,121200,2.19,0.11
Ag2Se1.03,362,-137.23,131311,1.166,0.768
(SnTe)12Sb2Te3,323,64.14,224000,2.91,0.102
Rb2Bi8Se13,724,-237,1403,0.48,0.119
Cu2.9Ag0.1ErTe3,400,50,221778,2.24,0.099
TiZr0.025NiSn,526,-191.2,54620,2.678,0.409
NbCo0.9Ni0.1Sn,703,-184.71,68571,6.691,0.246
(CuI)0.003Bi2Te3,420,-170.86,93431,1.385,0.827
In3.95Pb0.05Se3,330,-207,5150,1.055,0.069
Cu3.0SbSe4,623,330,7471,1.02,0.497
Cu2ZnSnSe4,323,105.92,21008,4.567,0.017
BiSb(Se0.98Br0.02)3,500,-173,16702,0.58,0.42
Cu2.1Se,295,51,260830,1.688,0.119
In0.005Pb0.995Te0.994I0.006,585,-162,49048,1.494,0.504
Cu2Zn0.8Fe0.2SnSe4,573,365.32,725.89,1.039,0.053
Ag0.02Cr1.98Se3,300,85.43,37643,1.558,0.053
Sb0.1Ge0.9Te,373,171.2,55050,1.581,0.384
Yb13.49Ce0.39Mn1.05Sb11.08,673,149.38,22616,0.734,0.463
Cu7P(S0.75Se0.25)6,673,313.61,1667,0.216,0.512
Cu2.5Sn0.5Sb0.5Se3.5,300,28,532716,5.31,0.024
Nb0.75Ta0.25CoSn0.9Sb0.1,728,-160.95,87234,3.906,0.421
Ba8.07Cu4.89Si41.03,517,-66,136190,2.7,0.114
GeTe,398,36.45,538144,6.727,0.042
Sn1.03Se0.12Te0.865Br0.015,523,56,243860,3.1,0.142
In0.005Pb0.995Te0.996I0.004,637,-207.42,28900,1.434,0.543
NbCoSn,972,-284.9,16020,4.36,0.26
Ce0.2Bi1.8Te3,458,-152.58,67400,0.566,1.242
Pb0.98Zn0.035Te,419,-208.9,59400,1.908,0.565
Ca1.11Yb3.89Al2Sb5.77Ge0.23,567,56.13,21402,1.963,0.019
BiSbSe2.76Cl0.24,500,-192,8730,0.49,0.328
Ba0.11Yb0.03Co4Sb12.07,800,-179,110000,1.3,0.9
Ag0.97CuSe,479,190.44,14569,0.632,0.4
Sn0.91Mn0.09Te0.97I0.03,331,56.7,233846,3.527,0.071
GeSe,772,522.06,400,0.762,0.11
Tl9.0Bi0.97Te6.0,385,173.6,27100,0.5,0.629
(CaZn0.4Ag0.2Sb)0.87(LiZnSb)0.13,573,170.15,26694,0.554,0.799
Ca5In1.98Zn0.02Sb6,922,238.55,5349,0.698,0.402
GeSe0.7Te0.3,776,119.7,70149,1.316,0.593
CuGa0.99Mn0.01Te2,425,356.5,5000,3.46,0.078
AgBi0.96Pb0.04Se2.12,300,377.3,1560,0.548,0.122
Ge0.6Sb0.2Te0.8(AgSnSe2)0.2,723,175.78,55484,0.93,1.369
(SnTe)0.84(CuSbTe2)0.16,432,51.92,259589,3.789,0.08
Ag0.01Sn0.99Se0.85S0.15,666,409.83,710,0.136,0.586
Mg1.96Li0.04Zn0.98Sb2,673,104.76,70053,1.122,0.461
Ba1.6Bi0.4CoRuO6,318,157.2,12500,1.324,0.074
Cu0.9Pd0.1FeS2,300,-168,27384,5.227,0.044
Ti0.925Mn0.075NiSn0.925Sb0.075,797,-120,200000,5.899,0.389
Ag(Bi0.8Nb0.2)0.9Sb0.1Se2,526,-170,14107,0.529,0.405
Cu1.925Ag0.075SnSe3,400,113.13,10727,1.092,0.05
Sn0.985In0.015Te,623,90.72,246067,4.292,0.294
Sr14.5Ga29.2Ge56.3,564,-143.52,59949,1.8,0.387
CsPr2Ag3Te5,298,-49.08,52.94,0.647,0
TlCr5Se8,423,247.4,5878,0.706,0.216
Ba1.6Bi0.4CoRuO6,418,74,37870,1.279,0.068
CoGeTe,327,-176,5850,8.295,0.007
Ba8.03Cu5Ge40.97,415,-113.73,45700,1.32,0.186
Mg2Zn1.04Sb2,773,121.8,8709,0.883,0.113
Ag8Sn0.6Ga0.4Se6,330,-559.35,70,0.21,0.052
ZnSc0.02O1.03,673,-230,5714,15.083,0.013
Cu10.5Ni0.5ZnSb4S13,617,221,10590,0.501,0.637
Zn0.9Cd0.1Sc0.02O1.03,773,-119.4,39430,3.83,0.113
Zn0.9Cd0.1Sc0.04O1.06,473,-102,41146,5.7,0.036
(SnTe)15Sb2Te3,773,161.54,90380,2.13,0.856
Cu2ZnSnSe4,573,165.43,15060,3.298,0.072
Li2Ge3Sb2Te7,523,246.6,26650,0.782,1.07
Tl8.98Sb1.02Te6,503,192,22400,0.46,0.906
Hf0.8Ti0.2CoSb0.8Sn0.2,305,158,61600,2.764,0.17
BiSb(Se0.98Br0.02)3,600,-190,15000,0.56,0.58
Ag3RbMo9Se11,324,71.15,4267,0.681,0.01
BiSbSe2.76Cl0.24,400,-159,11050,0.54,0.207
Ag2.0Se0.6Te0.4,375,-115,78990,0.752,0.521
Sr15Ga29.5Ge55.6,774,-193,21700,1.555,0.402
BaGd2NiO5,975,453.68,29.12,1.498,0.004
LaCo0.9(Ni0.5Fe0.5)0.1O3,300,327.5,828.6,0.48,0.056
Ge12Sb2Te15,573,236,42150,1.504,0.9
CuGa0.98Mn0.02Te2,475,292.4,9342,3.957,0.096
Al0.005Sb0.1Ge0.895Te,673,247.6,57030,1.47,1.601
Ag1.3Sb0.9Pb15.7Te22.0,473,-99.2,733,0.993,0.003
Hf0.9Ti0.1CoSb0.8Sn0.2,377,158.28,74752,3.39,0.207
SnSe0.8S0.2,673,365.41,2727,0.71,0.345
AgBi0.9Sb0.1Se2,478,-152.78,20535,0.475,0.483
(Zn0.9In0.1)4Sb3,373,175,13095,0.835,0.179
Mg2Cu3In3Te8,668,279.3,6690,1.372,0.254
Ba8Cu5.04Si13.01Ge27.96,811,-124.2,49200,1.81,0.34
Mg3.07Sb1.5Bi0.45Se0.05,400,-293.9,8507,0.796,0.369
Ag0.8Sb0.8Pb18.3Te20.0,673,-242,19116,0.701,1.075
(Cu3SnS4)0.915(Ga2Te3)0.085,741,120,84000,1.98,0.453
Ca5Ga2Sb6,624,112.7,1466,1.032,0.01
Ag2Mo6Te8,800,24.56,182699,4.208,0.021
Ba8Cu5.18Si9.98Ge30.85,613,-126,52780,1.7,0.302
Bi0.88Pb0.06Yb0.06CuSeO,741,192,15865,0.427,1.015
Ta0.84Ti0.16FeSb,470,142,258200,4.74,0.516
In4Pb0.01Sn0.03Se2.9Cl0.04,673,-261.5,13762,0.554,1.143
TiZr0.025NiSn,736,-186.56,74462,2.989,0.645
CsTb2Ag3Te5,462,115.6,281.5,0.405,0.004
Ba1.9Bi0.1CoRuO6,518,20.33,184500,1.367,0.029
La0.3Co4Sb12,473,80.3,26565,3.53,0.023
Zn0.9Cd0.1Sc0.006O1.009,1073,-148,27710,3.2,0.204
Co0.97Ni0.03GeTe,327,-81.28,90957,6.333,0.031
Ag(Bi0.85Nb0.15)0.7Sb0.3Se2,676,-228,7079,0.937,0.265
(PbTe)0.15(Ag2Te)0.85,500,-160.5,30700,0.543,0.726
BiCuSeO,839,256.91,2783,0.38,0.406
Ag(Bi0.85Pb0.15)0.9Sb0.1Se2,326,430.56,197.18,0.507,0.024
Ti0.98Al0.02O2,296,-376,1990,5.875,0.014
FeNb0.92Zr0.08Sb,300,122.82,330233,13.27,0.113
Cu2Se0.96S0.04,353,104.28,91758,0.712,0.495
Bi0.9Pb0.1CuSeO,50,26.29,246463,2.038,0.004
Tl4PbTe3,373,46.53,53500,1.025,0.042
Ge0.98Mn0.01Sb0.01Te,698,147.42,143299,2.15,1.011
Ge0.83In0.05Pb0.12Te,550,235.63,26995,1.087,0.787
Yb13.43Ce0.44Mn1.07Sb11.07,1173,238.4,12520,0.688,1.213
Ag0.9Sb0.9Pb18.3Te19.9,423,-360,3168,0.955,0.182
Ag0.01Sn0.99Se,322,296.15,1547,0.532,0.082
Cu10.5NiZn0.5Sb4S13,323,160,14530,0.5,0.24
Yb13.43Ce0.44Mn1.07Sb11.07,1073,232.1,12500,0.629,1.149
Ag0.01Sn0.99Se0.8S0.2,567,433.33,432,0.159,0.289
In4Pb0.01Sn0.03Se2.9Cl0.06,373,219,3820,0.844,0.081
Ag2Se1.03,377,-135.32,136800,1.174,0.804
(SnTe)12Sb2Te3,423,84.83,181125,2.7,0.204
Cu26V2Ge6S32,674,79,191500,3.011,0.268
Ti0.95Mn0.05NiSn0.95Sb0.05,398,-108.32,237748,6.328,0.175
CaZn0.4Ag0.2Sb,873,137.91,36932,1.022,0.6
Cu2Zn0.2Fe0.8SnSe4,473,238.15,2835,1.276,0.06
TiNiSn,424,-114.42,69767,4.103,0.105
Co0.95Ni0.05GeTe,776,-96.38,120370,5.038,0.172
Ca11Sb10,513,16,2060,0.922,0
AgCuTe0.6Se0.4,522,245.83,8155,0.379,0.679
EuCd2Sb2,650,274.4,10216,0.74,0.676
Ca0.05BaGd1.95NiO5,1230,285.29,130.54,1.281,0.01
Bi0.92Ag0.08CuSeO,773,335.5,2325,0.404,0.501
AgCuTe0.6Se0.4,723,258.1,6699,0.643,0.495
Mg2Sn0.995Sb0.005,350,-148.1,195614,5.107,0.294
Ca5Ga1.8Zn0.2Sb6,425,72.3,47700,1.64,0.065
Li0.01Cu1.85Se,784,74.34,187500,3.386,0.24
Li0.03Cu1.85Se,502,37.92,281731,2.605,0.078
Cu2Se0.94S0.06,353,111.84,87895,0.654,0.593
Ag0.97Cr0.99Sb0.01Se2,703,167.74,10240,0.457,0.443
Ag8Sn0.4Ga0.6Se6,710,-151.4,18020,0.289,1.015
Ag0.97Cr0.99Sb0.01Se2,503,111.23,15016,0.507,0.184
FeNb0.92Hf0.08Sb,400,145.4,276400,7.86,0.297
La0.1Ca0.9TiO3,640,-145.8,19900,3.238,0.084
Cu26Ti2Sb3Ge3S32,400,85.05,139024,1.861,0.216
Al0.01Sb0.1Ge0.89Te,673,268.01,54165,1.396,1.774
Ca0.25BaGd1.75NiO5,791,146.32,295.36,1.351,0.004
Tl0.7Co4Sn0.75Sb11.25,150,-31.76,46977,2.333,0.003
K8Ga8Ge38,50,0.3,231.01,1.006,0
Ge0.9Mn0.05Sb0.05Te,498,133.23,100000,2.086,0.424
AgSb0.99Mn0.01Te2,493,140,38667,0.92,0.406
Ta0.88Ti0.12FeSb,570,172,185933,4.604,0.681
Ca0.2BaGd1.8NiO5,1275,205.88,483.12,1.634,0.016
Cu26V2Ge6S32,400,32.57,389286,4.427,0.037
Ti0.97Mn0.03NiSn0.97Sb0.03,697,-147.2,138500,5.4,0.387
)",823,146.53,95413,2.07,0.8
(Cu3SnS4)0.915(Ga2Te3)0.085,798,183,27960,0.93,0.803
Sn1.03Se0.12Te0.88,423,26.62,369298,4.459,0.025
Ta0.92Ti0.08FeSb,670,213.3,115950,4.708,0.752
SnSe,523,371,336,0.6,0.04
NbCo0.96Ni0.04Sn,382,-119.41,112426,9.655,0.063
Yb7Ca6BaMgSb11,700,166.5,12100,0.595,0.395
Mg3.5Gd0.04Sb2,300,-220.36,15045,1.101,0.199
Mg3.07Sb1.5Bi0.45Se0.05,700,-306.3,10690,0.667,1.053
Ge0.55Pb0.45Te0.5Se0.5,370,249,10000,0.6,0.4
Sn0.93Pb0.06Zn0.01Se,573,550,315,0.516,0.106
Gd2.84Se4,550,-95.7,28734,1.272,0.114
La0.1Co4Sb12,773,101.6,24867,4.5,0.044
BiCuSeO,100,103.09,1.43,2.854,0
Ti0.9Mn0.1NiSn0.9Sb0.1,871,-131.89,205960,5.547,0.563
Cu26V2Ge5SbS32,497,71.1,201887,2.78,0.182
CsNd2Ag3Te5,462,135.78,195.6,0.349,0.005
LiGe3.5Sb2Te7,573,252,35550,0.946,1.28
Na0.13Co4Sb12,850,-200,39000,2.6,0.4
Cu3SbSe4,723,244.6,7760,1.113,0.36
Bi2.0S2.79Se0.21,623,-561,268,0.51,0.103
In4Pb0.01Sn0.03Se2.9Cl0.06,573,-246.8,10100,0.614,0.574
Ba8.07Cu4.89Si41.03,466,-60,143000,2.715,0.089
SnTe,298,29.2,768116,6.5,0.04
CoS2,250,-36.97,759413,11.94,0.022
Zn2Cu3In3Te8,473,169,16275,2.15,0.102
Cu2.05Cd0.95SnSe4,450,147.4,16236,1.394,0.114
Ag2Te,600,-123.2,43100,0.63,0.623
Sr14.8Ga28.6Ge56.6,510,-101,92545,2.16,0.223
Mo3Sb7I0.75,423,24.5,569400,5.556,0.026
La0.25Ca0.75TiO3,640,-105.5,66500,3.07,0.154
Ag8.0GeTe6.0,770,-20,1111,0.3,0.001
(Cu3SnS4)0.895(Ga2Te3)0.105,798,180.8,29628,0.832,0.929
Cu2.05Cd0.95SnSe4,500,152,18427,1.15,0.185
Ba8.07Cu4.89Si41.03,566,-72.6,128829,2.685,0.143
Sn1.03Se0.08Te0.92,523,49.17,258772,4.384,0.075
Ba8Cu5.04Si13.01Ge27.96,566,-106,65100,1.843,0.225
Cu1.95S0.5Se0.5,300,62.63,33861,0.613,0.065
Mo3Sb7,723,39.17,425000,6.82,0.069
Cu3ErTe3,500,56.2,216000,2.18,0.156
(SnTe)12Sb2Te3,673,156.7,93000,1.9,0.809
Yb13.49Ce0.39Mn1.05Sb11.08,473,98.4,33007,0.774,0.195
Cu2.05Cd0.95SnSe4,600,160.7,16910,0.835,0.314
Rb2Bi8Se12.961,526,-241,6060,0.535,0.346
Ca5In1.9Zn0.1Sb6,622,171,19940,0.922,0.379
Sr0.21Co4Sb12.25,350,-136,217727,4.58,0.308
La0.5Co4Sb12,573,86.7,30700,2.31,0.057
Yb14MgBi11,817,88.64,59592,1.728,0.221
Cu2Zn0.6Fe0.4SnSe4,473,330.92,306.87,1.76,0.009
(Sn0.985In0.015Te)0.95(AgCl)0.05,423,63.21,478652,5.189,0.156
Cu1.925Ag0.075SnSe3,700,165.15,8667,0.571,0.29
(SnTe)0.84(CuSbTe2)0.16,719,139.29,107240,2.087,0.717
Ba8Cu5.04Si13.01Ge27.96,763,-124.78,50710,1.81,0.333
LiCo0.85Ni0.15O2,623,398.62,5.4,1.943,0
Ag0.97CrSe2,503,118.43,14157,0.415,0.241
In0.015Pb0.985Te0.996I0.004,637,-225.39,19800,1.262,0.51
Sn0.97Pb0.01Cd0.025Se,300,314.24,2095,1.13,0.055
SnS,700,620,80,0.754,0.029
(Cu0.003Pb0.997Te)(MnTe)0.03,773,-182.98,53517,1.331,1.041
Cu3Sb0.998In0.002Se4,473,324.5,5200,1.376,0.188
ZrNiPb0.993Bi0.007,871,-180.41,100900,6.826,0.419
In4Pb0.01Sn0.03Se2.9Cl0.02,523,-231.1,16660,0.692,0.68
Bi0.48Sb1.52Te3,450,211.82,37584,1.72,0.441
Nb0.85Ta0.15CoSn0.9Sb0.1,530,-130.29,111915,4.696,0.214
Cu2Se,650,152.3,49118,1.064,0.696
In0.005Pb0.995Te0.994I0.006,378,-153.2,81875,1.882,0.375
(Sn0.8Ge0.2)0.94Mn0.06Te,473,69.4,210600,2.58,0.186
AgCuTe0.7Se0.3,522,231.35,13301,0.367,1.013
Sr0.16Yb0.03Co4Sb11.82,450,-145,225455,3.63,0.588
BiSb(Se0.92Br0.08)3,500,-163,20850,0.53,0.523
LiGe11.5Sb2Te15,473,242.7,39890,1.326,0.838
Sn1.03Se0.12Te0.87Br0.01,823,164.66,80802,2.17,0.75
Cr1.99Mn0.01Ge2Te6,320,360.3,593.75,0.82,0.03
Cu2.94Ag0.06SbSe4,498,415,4824,1.15,0.36
Ca9Yb2Sb10,327,14.81,42490,0.644,0.005
Cu2Se0.5S0.5,520,67.82,117429,1.39,0.186
AgCuSe,621,226,10130,0.53,0.606
CsPr2Ag3Te5,539,141.74,169,0.523,0.003
Gd2Se2.92,450,-99.46,30316,1.604,0.084
Yb8Ca5BaMgSb11,300,63.5,14150,0.529,0.03
ZrNiPb0.94Sn0.4Bi0.02,871,-152.56,192500,5.512,0.708
LaCo0.9Fe0.1O3,300,598.8,39.4,0.257,0.019
Ag0.97Cr0.99Sb0.01Se2,753,197.01,7556,0.459,0.481
Yb13.43Ce0.44Mn1.07Sb11.07,773,173.75,19060,0.655,0.679
Ca6Yb5Sb10,701,16.74,45918,1.703,0.005
CuGa0.97Mn0.03Te2,625,232.6,21565,4.072,0.179
GeSe0.7Te0.3,630,34.96,61940,1.563,0.031
Cu2CdSnSe4,400,241.6,3138,2.024,0.036
Cu5.133Sn1.866S6.3Cl0.7,633,117.05,60267,1.4,0.373
Sn0.95Mn0.05Te,720,112.7,169231,3.461,0.447
Cu2Se,473,58.7,241800,2.733,0.144
ZrNiPb0.94Sn0.4Bi0.02,673,-142.32,224655,5.309,0.577
Nd3Te4,573,-43,245500,3.28,0.075
As2Te2.9Se0.1,523,143.56,2230,0.601,0.029
Ag0.02Cr1.98Se3,671,163.4,23723,1.588,0.268
Ba8.02Cu4.98Si35Ge5.99,615,-84.3,103623,2.25,0.204
Tl0.22Co4Sb12,250,-105.4,118824,3.515,0.094
Cu2.82Ag0.18SbSe4,548,383.5,7000,0.83,0.69
Ag0.97Cr0.97Bi0.03Se2,603,120.34,15410,0.398,0.339
Nb0.95Ta0.05CoSn0.9Sb0.1,924,-167.05,88227,4.237,0.537
Al0.0075Sb0.1Ge0.8925Te,573,214.6,52450,1.428,1
Sn0.97Ce0.03Te,523,107,149480,2.83,0.3
Sn0.91Mn0.09Te0.97I0.03,720,174.23,76410,1.92,0.87
In0.15Co4Sb11.95,800,-243,56000,1.9,1
BiSbSe2.76Cl0.24,300,-132,13260,0.58,0.12
(SnTe)0.96(CuSbTe2)0.04,525,59.34,246077,4.385,0.104
Sn0.97Pb0.02Zn0.01Se,673,518.44,900,0.696,0.234
Cu2SnSe3,700,178.28,12121,0.8,0.337
Gd2Se2.98,350,-123.55,41835,2.03,0.11
Gd2.84Se4,850,-139,21582,1.29,0.275
(Sn0.8Ge0.2)0.8Mn0.2Te,573,111,112869,1.677,0.457
Ca0.2BaGd1.8NiO5,587,166.91,129.33,1.653,0.001
Ag2Se1.02,308,-141,125410,0.975,0.8
Sn1.03Se0.15Te0.85,423,25.7,361739,4.283,0.024
LiGe3.5Sb2Te7,673,270,32200,0.889,1.647
Ge0.55Pb0.45Te,671,112.42,41667,1.77,0.207
BiCuSeO,423,443,500,0.658,0.063
BiSb(Se0.94Br0.06)3,700,-203,16277,0.5,0.939
MgAgSb0.995In0.005,500,202.36,46000,1.046,0.941
Mg2.16(Si0.4Sn0.6)0.98Bi0.02,300,-122,185000,2.77,0.298
Zn2Cu3In3Te8,668,191.4,12965,1.18,0.269
AgBi0.98Pb0.02Se2.12,450,400.6,4150,0.621,0.483
Ge0.99Te,523,85.4,369792,3.71,0.38
Ta0.88Ti0.12FeSb,770,206.7,119498,4.07,0.968
In0.005Pb0.995Te0.998I0.002,481,-239,23968,1.45,0.45
SnSe0.9S0.1,673,346.23,4220,0.69,0.502
Cr1.99Fe0.01Ge2Te6,812,264.43,3820.31,0.642,0.338
Cu11.8Gd0.2Sb4S13,724,138,65650,1.305,0.708
Ba0.08La0.05Yb0.08Co4Sb12,300,-126,239800,1.3,0.4
YbCd2Sb2,550,148.87,72770,1.295,0.685
Sn1.03Se0.12Te0.87Br0.01,323,20.75,609649,4.61,0.018
Ba8.04Cu4.99Si18Ge22.98,566,-169.8,25500,1.416,0.294
Al0.01Sb0.1Ge0.89Te,573,241.13,46104,1.38,1.067
Tl8.97Sb1.03Te6,326,118.2,43300,0.671,0.291
AgSb0.99Mn0.01Te2,544,150.96,35333,0.911,0.481
Eu(Zn0.5Cd0.5)2Sb2,500,228,22487,1.115,0.524
Ba0.97K0.03Zn2As2,623,86,72727,2.3,0.146
Sr0.12Co4Sb12.46,300,-137,90360,5.1,0.1
Cu1.02Fe0.98S2,50,-972.73,0.17,54.25,0
Zn0.9Cd0.1Sc0.04O1.06,573,-110.2,37604,4.955,0.053
EuZn2Sb2,550,170,72000,1.574,0.727
Mg2ZnSb2,773,119.87,8974,1.189,0.084
Cu10.5Ni1.5Sb4S13,617,181,24800,0.758,0.651
Ga0.10Co4Sb11.95Ga0.05,600,-285,36700,2.1,0.7
Sr0.11Ba0.18Co4Sb12.09,350,-105,367593,4.45,0.319
Cu2Se,1000,236.84,21802,0.868,1.409
Ag8Sn0.5Ga0.5Se6,388,-520.79,66,0.22,0.046
Cu7PS6,325,97.62,2.34,0.233,0
CrO0.09N0.9,300,-48.65,35660,2.75,0.009
Pb0.99Tl0.005Na0.005Te,798,278.1,21238,0.938,1.397
Cu2Se0.92S0.08,850,257.28,17328,0.644,1.514
Ag8SnSe6,330,-543,99,0.213,0.045
Ba0.96K0.04Zn2As2,323,45.06,145455,2.95,0.032
Li0.03Cu1.8Bi0.05Se,303,56.25,81609,0.893,0.088
FeNb0.86Hf0.14Sb,1000,208.5,124810,4.29,1.265
Ba0.11Yb0.08Co4Sb12,700,-167.93,123404,2.316,1.052
Ag0.97CuSe,298,-98.1,179710,1.465,0.352
Cu0.98Pd0.02FeS2,300,-306.87,9305,7.386,0.036
CuFe0.98In0.02S2,600,-369.8,3936,2.147,0.15
Co0.99Ni0.01GeTe,626,-125.32,52926,4.595,0.113
Ag1.2Sb0.8Pb14.9Te22.7,623,316.8,3147,0.92,0.214
Yb7Ca6BaMgSb11,500,132.4,12260,0.555,0.194
TiNiSn,735,-148.53,89147,4.141,0.397
Mg2Cu3In3Te8,377,326,1620,2.75,0.024
Zn0.9Cd0.1Sc0.03O1.045,773,-123,36040,3.94,0.107
CuGaTe2,718,265,19450,2.568,0.382
Cu3Sb0.9875Ge0.0125S4,473,404.4,2020,1.072,0.147
Ag0.98Nb0.02BiSe2.0,375,-138,16000,0.69,0.166
Hf0.8Ti0.2CoSb0.8Sn0.2,580,204.5,52300,2.8,0.453
Cu2Se,850,202.3,30812,0.938,1.143
Ba8.04Cu4.99Si18Ge22.98,712,-132.3,25850,1.76,0.183
Cu2.025Cd0.975SnSe4,500,186.4,6793,1.315,0.09
Ge1.04Te,673,182,154013,2.237,1.535
Pb0.975Zn0.04Te,825,-242.4,27829,1.183,1.144
ZrNiPb0.96Sn0.2Bi0.02,303,-84.5,445128,6.6,0.146
Cu1.95In0.05Se,473,177.72,21622,1.988,0.167
GeSe0.8Te0.2,430,21.54,91045,1.879,0.01
Pb0.98Tl0.01Na0.01Te,696,237.91,37585,1.028,1.44
Sn0.87Mn0.1Bi0.03Te,623,106,154760,3.366,0.322
In0.015Pb0.985Te0.998I0.002,637,-232.8,15750,1.355,0.403
Cu5.133Sn1.866S7,415,32.1,370492,5.213,0.03
(Sn0.8Ge0.2)0.85Mn0.15Te,673,119.3,116900,1.55,0.722
Cu3SbS4,300,670.33,89.3,1.865,0.006
Ag2.0Se0.9Te0.1,360,-133.8,105413,0.896,0.758
Mg3Sb2,750,288,2400,0.6,0.249
CuGa0.99Mn0.01Te2,475,366.85,4825,2.957,0.104
Yb14MgSb11,800,182.26,15441,0.737,0.557
TiZr0.015NiSn,729,-200.92,81085,2.743,0.885
Ag(Bi0.9Nb0.1)0.7Sb0.3Se2,576,-270,3090,0.544,0.238
Yb10LaCdSb9,773,56.54,31707,0.914,0.086
AgBi0.94Pb0.06Se2.12,400,329,6298,0.68,0.401
Gd0.04Co4Sb12,300,-226,54800,4.1,0.2
Eu14MgBi11,717,70.3,48993,1.631,0.106
Sr15Ga29.5Ge55.6,669,-207.6,22733,1.22,0.533
Sn0.95Mn0.05Te,622,89.06,224852,4.105,0.27
Tl8.95Bi1.05Te6.0,322,-220,170,0.338,0.008
Cu2.05Cd0.95SnSe4,550,156,18258,0.965,0.253
Cu0.99Pd0.01FeS2,50,-140.46,723.4,32.5,0
Pd0.20Co3.80Sb12.01,300,-177,125200,4.9,0.2
Li1.04Co0.85Ni0.15O2,723,319.5,30.9,1.421,0.002
Sn1.03Se0.15Te0.85,323,10.83,517391,4.874,0.004
CaTiO3,538,-257,2600,3.67,0.025
FeNb0.88Ti0.12Sb,500,140,250000,8.24,0.297
Ce0.16Co4Sb12,850,-184,128000,1,1.2
AgBi0.99Pb0.01Se2.12,400,548.68,379,0.531,0.086
SnTe0.25AgSbSe2,300,65.8,133500,1.854,0.094
Ba8.02Cu4.98Si35Ge5.99,517,-72,115320,2.225,0.138
Co0.97Ni0.03GeTe,825,-97.87,86436,4.679,0.146
Mg3.5Ho0.01Sb1.97Te0.03,500,-261.35,15661,0.873,0.613
In0.015Pb0.985Te0.994I0.006,428,-212.5,27700,1.592,0.336
Cu2.82Ag0.18SbSe4,598,370,7809,0.76,0.841
Rb2Bi8Se12.9935Cl0.0065,428,-237.48,6029,0.529,0.275
Ag(Bi0.8Pb0.2)0.7Sb0.3Se2,526,281.1,1728,3.265,0.022
AgSn15.0BiTe17.0,600,149,97115,1.765,0.733
Bi0.84Pb0.08Yb0.08CuSeO,847,156.74,11566,0.446,0.54
Cu2SnS3,423,340,170,1.63,0.005
In0.15Co4Sb11.95,700,-259,57000,1.7,1.1
Tl9.0Bi0.98Te6.0,503,239.3,14545,0.39,1.074
Eu(Zn0.5Cd0.5)2Sb2,600,244,19676,1,0.703
(SnTe)40Sb2Te3,623,93.2,172994,3.564,0.263
Cu2.1Cd0.9SnSe4,500,141,25517,1.008,0.252
NbFe0.94Ir0.06Sb,300,-76.8,170020,6.21,0.04
Nd0.15Co4Sb12,300,-133,162400,2.1,0.3
(SnTe)0.94(CuSbTe2)0.06,722,134.6,113100,2.435,0.608
Cu1.9Ag0.1SnSe3,700,236.87,3980,0.521,0.3
Co0.99Ni0.01GeTe,394,-131.49,52128,6.114,0.058
Cu1.5S,600,29.07,396154,5.079,0.04
Na0.36Co4Sb12,300,-117,247000,4.7,0.2
Mo3Sb7I1.25,623,43.2,451050,5.87,0.089
Cu2Zn0.6Fe0.4SnSe4,673,299.13,2169,1.028,0.127
FeNb0.86Hf0.14Sb,900,195.3,148000,4.447,1.142
Ca3Co3.8Ti0.2O9,1000,239.4,6508,1.918,0.194
(Cu0.001Pb0.999Te)(MnTe)0.03,423,-208,55724,1.594,0.64
Mg2.16Si0.4Sn0.6,620,-204.8,5600,1.696,0.084
GeSe,723,629.21,231.01,0.874,0.076
CuAgTe0.6Se0.4,303,198.37,10945,0.452,0.289
(SnTe)0.94(CuSbTe2)0.06,525,64.5,222000,3.814,0.127
AgBiSe2.0,577,-239,3478,0.43,0.267
CuFeS2,70,-508.4,407,27.95,0
Zr0.5Hf0.5 CoSb0.8Sn0.2,301,146.3,88760,2.85,0.17
Cu5SnSbSe6.3,573,65.17,124138,2.285,0.132
Na0.48Co4Sb12,850,-203,121000,1.3,1.3
Ca1.18Yb3.82Al1.84In0.16Sb6,718,48.3,27697,2.342,0.016
Ge0.6Sb0.2Te0.8(AgSnSe2)0.2,323,137.27,56774,0.827,0.418
AgBi0.97Pb0.03Se2.12,400,375.5,3723,0.595,0.353
Sr0.21Co4Sb12.25,450,-156,178636,4.11,0.476
S0.04Pd0.20Co3.80Sb11.99,300,-189,85300,3.2,0.3
Sn0.91Mn0.09Te0.98I0.02,424,80.93,178974,3.023,0.164
In0.01Pb0.99Te0.998I0.002,663,-247.7,16984,1.346,0.511