Formula,T,Seebeck,s,k,ZT
Ba0.5Cr5Se8,743,294.26,1411,0.956,0.095
S0.08Pd0.20Co3.80Sb12.04,850,-213,47600,2.8,0.5
TiNiSn,797,-154.81,103311,5.678,0.348
GeSe0.6Te0.4,728,122.2,115672,2.264,0.555
Cu2.025Cd0.975SnSe4,300,173,5362,2.673,0.018
Mg2.16(Si0.4Sn0.6)0.97Bi0.03,500,-162.8,146100,2.389,0.81
BiCuSeO,673,363,1800,0.493,0.324
YbCd1.8Zn0.2Sb3,450,165.1,54813,1.575,0.427
Ca9Yb2Sb9Ge,608,7.11,16907,0.988,0.001
Cu2Se0.94S0.06,750,223.68,22629,0.744,1.141
La0.3Co4Sb12,573,93,26217,3.333,0.039
Yb14MgBi11,1013,108,54670,1.626,0.397
Cu2Se0.92I0.08,350,175,11446,0.256,0.479
GeSe0.65Te0.35,430,18,110075,1.864,0.008
CuFe0.98In0.02S2,390,-348.8,4715,4,0.056
Sn0.98Ce0.02Te,423,40.86,321520,4.155,0.055
CaTiO3,840,-295.3,2150,3.14,0.05
Ba0.95K0.05Zn2As2,323,31,213333,3.733,0.018
GeSe0.75Te0.25,430,20.53,83955,1.626,0.009
Cu2CdSnSe4,550,261.7,3465,1.37,0.095
Zn0.97Al0.03O,373,-68,49000,7.4,0.011
Zn0.9Cd0.1Sc0.03O1.045,673,-111,40000,4.38,0.076
(Sn0.985In0.015Te)0.85(AgCl)0.15,623,98.99,195506,2.978,0.396
Ti0.97Mn0.03NiSn0.97Sb0.03,297,-95.57,143709,5.94,0.066
Cu22Sn9SbS32,300,72.46,103152,2.8,0.058
YbCd1.7Zn0.3Sb2,650,179,49043,1.288,0.833
Ag0.4Sb1.1Pb19.6Te18.8,623,-145.6,24032,1.34,0.237
Mg2Cu3In3Te8,620,283,5950,1.548,0.191
GeSe,326,774.26,3.13,2.845,0
Ag0.98Nb0.02BiSe2.0,478,-164.7,11852,0.666,0.231
Ba8.01Ga15.88Zn0.009Sn30.11,340,389.08,7197,0.883,0.42
As2Te2.9Se0.1,373,159.41,1063.62,0.634,0.023
Gd2.84Se4,350,-58.5,35100,1.283,0.033
Ba0.5Cr5Se8,507.4,285.81,709,1.278,0.023
Zn0.9Cd0.1Sc0.02O1.03,373,-80,55500,6.5,0.02
Ag2.0Se0.9Te0.1,300,-137.8,90000,0.79,0.649
Tl9.0Sb0.98Te6,326,106,53000,0.69,0.281
Sn0.97Mn0.03Te,527,69.92,268639,5.026,0.138
Hf0.8Ti0.2CoSb0.8Sn0.2,885,229,47670,2.669,0.829
Li0.02Cu1.85Se,502,35.71,296154,3.261,0.058
Cu2SnSe3,823,207.38,8844,0.9,0.352
Cu10.5Ni1.3Zn0.2Sb4S13,517,177,22570,0.658,0.562
Ca2Yb9Sb10,701,13.48,107292,2.348,0.006
Ca0.25BaGd1.75NiO5,579,163.97,131.27,1.3,0.002
Ba0.10La0.05Yb0.10Co4Sb12,850,-185,163100,0.3,1.6
LiCo0.96Ni0.04O2,323,390.34,0,2.034,0
Ca0.1BaGd1.9NiO5,939,163.97,192.81,1.875,0.003
Cu22Sn10S32,300,44.63,246575,3.514,0.042
Mg3.07Sb1.5Bi0.44Se0.06,500,-312.69,9022,0.74,0.596
Gd2Se2.92,650,-131.16,21329,1.245,0.192
Ca0.05BaGd1.95NiO5,1037,256.62,107.19,1.384,0.005
Ca1.14Yb3.86Al1.68In0.32Sb6,330,156.9,9024,1.133,0.065
Cu1.99In0.01Se,572,164.85,41892,0.888,0.7
CuGa0.99Mn0.01Te2,375,339.7,5702,4.44,0.056
CoAsSb,900,-81.7,112033,5.315,0.127
FeNb0.86Hf0.14Sb,700,165,217829,4.966,0.836
Ge0.55Pb0.45Te0.2Se0.8,470,280.63,2022,0.78,0.049
NbCo0.94Ni0.06Sn,998,-112.35,91905,6.071,0.191
S0.04Pd0.20Co3.80Sb11.99,580,-216,58900,2.8,0.6
(SnTe)25Sb2Te3,623,114.57,159250,2.81,0.463
Ag(Bi0.9Nb0.1)0.7Sb0.3Se2,676,-278,2818,0.558,0.264
(CaZn0.4Ag0.2Sb)0.83(LiZnSb)0.17,472,143.51,33592,0.907,0.36
Bi0.96Ag0.04CuSeO,873,343,2735,0.466,0.603
As2Te2Se,298,224.24,6.23,0.473,0
Pb0.9825Tl0.0075Na0.01Te,301,105.84,108496,2.522,0.145
As2Te2Se,323,242.42,9.21,0.46,0
YbCd1.9Zn0.1Sb2,350,137.32,61377,1.955,0.207
Pb0.99Tl0.01Te,696,273.53,23824,0.961,1.291
Ti0.99Mn0.01NiSn0.99Sb0.01,797,-164.97,112583,5.6,0.436
Mg1.98K0.02Zn0.98Sb2,373,237.04,8677,0.667,0.273
In3.94Pb0.06Se3,480,-256,8700,1.22,0.224
Cu7P(S0.6Se0.4)6,325,288.7,379,0.22,0.047
AgCuTe0.8Se0.2,320,97,29515,0.635,0.14
GeTe,698,142.58,162887,2.514,0.919
Rb2Bi8Se12.961,724,-228.8,8295,0.526,0.598
Yb8Ca5BaMgSb11,500,129.3,14600,0.578,0.211
Ca3Al0.98Zn0.02Sb3,622,248,4350,0.83,0.205
Li0.01Cu1.85Se,301,26.49,436538,2.425,0.038
Ag0.04Cr1.96Se3,405,110.39,34110,1.499,0.112
AgSb0.93Mn0.07Te2,442,103.83,91351,1.184,0.368
Mg2ZnSb2,473,150.33,1523,0.741,0.022
Al0.0075Sb0.1Ge0.8925Te,373,167.2,53333,1.491,0.373
(Cu3SnS4)0.895(Ga2Te3)0.105,405,62.63,161268,2.886,0.089
Gd2Se2.98,650,-183.8,24060,1.358,0.389
Cu26V2Ge6S32,309,18.81,545000,5.315,0.011
MgAgSb0.985In0.015,500,183.09,77838,1.449,0.9
Ca3Co2O6,873,142,8100,3.87,0.037
Ca1.14Yb3.86Al1.68In0.32Sb6,725,143.37,6402,1.025,0.093
SnS0.94Se0.06,423,259,47100,1.81,0.738
CrSe3,619,165.6,23036,1.781,0.218
Co4Sb11.7Te0.3,850,-231,33000,3.3,0.4
Ga0.03Co4Sb11.985Ga0.015,650,-268,11800,2.4,0.2
Cu2Zn0.8Fe0.2SnSe4,473,360.12,155.35,1.539,0.006
Al0.03Ge0.97Te,323,37.5,555357,6.051,0.042
Cu5Sn2Se7,500,34.42,383900,4.304,0.053
Zn0.95Cd0.05Sc0.02O1.03,673,-110,16000,5.92,0.022
NbCoSb,974,-139.8,101380,3.04,0.4
Ag(Bi0.9Nb0.1)0.7Sb0.3Se2,478,-263,2089,0.54,0.128
Yb13.44Ce0.4Mn1.09Sb11.07,573,130.5,23502,0.739,0.31
NbCo0.98Ni0.02Sn,605,-161.76,59048,8.321,0.112
Co0.95Ni0.05GeTe,701,-94.04,120899,4.893,0.153
SnS0.91Se0.09,423,242.5,73350,1.71,1.054
Ca5Ga1.8Zn0.2Sb6,525,85.7,45100,1.51,0.115
Cu0.99Pd0.01FeS2,70,-172.5,1382,29.2,0
Li1.1Co0.85Ni0.15O2,523,228.5,9.4,2.721,0
La0.2Ca0.8TiO3,840,-153,40322,2.846,0.279
TaFeSb,770,98,3324,5.018,0.005
Bi0.92Pb0.04Yb0.04CuSeO,747,223.36,7336,0.454,0.603
Ag0.02Cu1.955S0.5Se0.5,300,141.15,4191,0.446,0.056
Rb2Bi8Se12.9909Cl0.0091,526,-201.26,6176,0.537,0.245
(Cu0.004Pb0.996Te)(MnTe)0.03,523,-173.33,78759,1.563,0.792
SnSe0.8S0.2,573,319.81,2742,0.785,0.205
Cu3Sb0.9875Ge0.0125S4,573,424.3,1891,0.809,0.241
CrO0.09N0.9,250,-56.8,34457,4.388,0.006
CuAgTe0.5Se0.5,408,225,7361,0.302,0.503
Sn1.03Se0.12Te0.865Br0.015,823,164.5,63158,2.107,0.668
Sn1.03Se0.12Te0.875Br0.005,623,120,145614,2.597,0.458
CuFeS2,300,-361.6,5270,8.425,0.025
Cr1.99Fe0.01Ge2Te6,416,468.04,304.69,0.78,0.036
Sb2Si2Te6,673,213.37,13750,0.5,0.843
Cu3P0.6Ge0.4S4,350,57,97400,1.63,0.068
In4Se2.32Cl0.03,423,-246.15,23400,0.993,0.6
Ag2Se,362,-98.24,233115,1.307,0.623
ZrNiPb0.94Sn0.4Bi0.02,303,-85.24,376450,5.919,0.14
Ba0.10La0.05Yb0.20Co4Sb12,300,-93,336700,1,0.3
Co0.97Ni0.03GeTe,394,-94.89,84574,5.84,0.051
Mg0.98Li0.02Ge0.9Si0.1,675,281.2,19385,2.684,0.386
Eu2Zn0.96Sb2,823,193,15340,0.5,0.941
Sb0.05Ge0.95Te,673,189.63,118349,2.218,1.291
Bi1.9Nb0.1Te3,426,-112.53,64706,0.777,0.449
Ge0.55Pb0.45Te0.3Se0.7,300,258.13,4955,0.788,0.163
Mg3.5Gd0.03Sb1.97Te0.03,700,-279.58,13218,0.634,1.141
Pb6Bi2Se9,623,-189.8,11769,1.12,0.236
Nd2.86Te4,573,-68.8,114085,2,0.151
CrSe3,566,159.86,24786,1.758,0.204
Ag0.01Cu1.965S0.5Se0.5,578,112.44,37426,0.92,0.306
Yb9Ca4BaMgSb11,700,164,15350,0.596,0.485
Ag0.6Sb0.9Pb19.5Te19.1,623,-200,22500,1.666,0.337
Cu2Se,400,166.7,40986,0.2,2.278
Ge0.55Pb0.45Te0.2Se0.8,569,230,2321,0.914,0.071
Ca1.18Yb3.82Al1.84In0.16Sb6,619,41.7,32600,2.492,0.012
Ag(Bi0.9Nb0.1)0.9Sb0.1Se2,526,-181,11567,0.628,0.317
Mg2Cu3In3Te8,427,338.3,1793,2.31,0.038
Ca5In1.95Zn0.05Sb6,622,209,14350,0.91,0.428
Yb0.12Co4Sb12.11,800,-220,68000,1.6,1
Sb0.1Ge0.9Te,673,240,60550,1.454,1.592
Cu3.0SbSe4,548,369,5150,1.2,0.32
LiCoO2,823,788.97,13.74,3.318,0.002
Sr14.5Ga29.2Ge56.3,774,-166.67,40300,1.754,0.494
LiCo0.96Ni0.04O2,823,718.62,17.78,1.579,0.005
NbCoSn0.9Sb0.1,430,-99.62,140000,6.177,0.097
Sn0.91Mn0.08Bi0.01Te,523,88,216000,3.785,0.231
Ge0.6Sb0.2Te0.8(AgSnSe2)0.2,523,187,42600,0.805,1.011
Sn0.96Pb0.01Cd0.035Se,673,408,2048,0.338,0.679
Sn1.03Se0.12Te0.875Br0.005,523,62.93,256140,3.34,0.148
Rb2Bi8Se12.9935Cl0.0065,526,-269.69,3676,0.477,0.295
Cu2.88Ag0.12SbSe4,498,400,6447,1.04,0.5
FeNb0.92Hf0.08Sb,700,205.4,132600,5.626,0.696
YbSi2,522,-36.7,620500,10.4,0.042
Ca14MgSb11,600,130,5400,0.665,0.082
Yb13.44Ce0.4Mn1.09Sb11.07,973,215,11800,0.645,0.823
Ba8Cu5Si25Ge16,661,-102.5,78400,1.91,0.284
Cu2Sn0.95Zn0.05S3,623,173,11800,0.762,0.289
Ba8.02Cu5.04Si6Ge34.93,566,-107,60700,1.4,0.282
BaBiTe3,598,-183.6,8515,0.43,0.399
Rb2Bi8Se12.9935Cl0.0065,330,-199.25,9559,0.622,0.201
(Sn0.8Ge0.2)0.88Mn0.12Te,298,50,226695,2.559,0.066
Gd2.79Se4,650,-122,18170,1.264,0.139
(SnTe)0.94(CuSbTe2)0.06,320,30.2,406300,4.435,0.027
Ca1.11Yb3.89Al2Sb5.77Ge0.23,373,39,19346,2.274,0.005
Ca1.14Yb3.86Al1.68In0.32Sb6,579,185.64,5305,0.917,0.115
Ag2.0Se0.6Te0.4,360,-113,79266,0.737,0.494
BiSbSe2.88Cl0.12,700,-289,3615,0.416,0.508
In0.005Pb0.995Te0.999I0.001,378,-254.72,23016,1.734,0.322
Ge4Sb2Te7,523,83.4,117780,1.888,0.227
Cu2.7Ag0.3ErTe3,300,41.4,271000,2.35,0.059
Ge0.55Pb0.45Te0.3Se0.7,370,271.88,5288,0.666,0.275
Ge0.89In0.05Pb0.06Te,375,152.94,58081,1.247,0.409
CaZn0.4Ag0.2Sb,673,136.2,40373,0.853,0.591
ZrNiPb0.993Bi0.007,771,-210.2,96296,6.314,0.52
Cu1.95S0.5Se0.5,475,73.54,49010,1.267,0.099
Rb2Bi8Se12.9909Cl0.0091,724,-195.3,7500,0.521,0.398
La0.15Ca0.85TiO3,432,-86,115100,3.85,0.105
(SnTe)15Sb2Te3,723,156.92,93924,2.11,0.792
Cu7PS6,523,223.21,142,0.156,0.024
Mo3Sb7I0.75,723,45.5,447150,6.49,0.103
YbCd1.6Zn0.4Sb2,450,155.05,67582,1.477,0.54
SnTe0.2AgSbSe2,300,64,125000,1.285,0.131
Cu2CdSnSe4,650,285.7,3328,1.122,0.157
In4Se2.67Cl0.03,623,-202.75,30451,0.612,1.274
SnTe,873,90,162500,3.602,0.318
Eu0.10Co4Sb12,850,-217,50000,2.2,0.7
(Sn0.8Ge0.2)0.97Mn0.03Te,573,82,203400,2.984,0.26
MgAgSb,500,199.1,42000,1.01,0.824
Cu2ZnSn0.95Ag0.05Se4,373,38.87,238462,3.526,0.038
Ag3.9Mo9Se11,350,98,30250,0.78,0.13
Nb0.75Ta0.25CoSn0.9Sb0.1,530,-134.04,105957,4.345,0.232
GeSe0.6Te0.4,530,94,133209,2.11,0.296
Sr14.7Ga28.7Ge56.6,666,-133.6,66427,1.532,0.515
Eu14MgBi11,817,84.85,48344,1.629,0.175
Mg1.98Li0.02Zn0.98Sb2,673,146.03,45820,0.993,0.662
Ag1.2Sb0.8Pb14.9Te22.7,523,280,1583,1.01,0.064
CuAgTe0.5Se0.5,422,211.41,5482,0.306,0.338
Ag0.04Cr1.96Se3,619,152.11,26738,1.509,0.254
Mg2.994Na0.006Sb2,468,164,17660,1.156,0.192
BiCuSeO,446,140.13,5598,0.545,0.09
(PbTe)0.1(Ag2Te)0.9,550,-159.4,27150,0.532,0.713
Tl0.8Co4SnSb11,100,4.05,114773,2.58,0
Ca0.15BaGd1.85NiO5,716,175.74,271.33,1.855,0.003
Cu2Sn0.95Fe0.05Se3,723,112.15,70608,1.929,0.333
Eu2ZnSb2,823,220,6600,0.47,0.559
Ba0.08Yb0.09Co4Sb12,400,-145,172340,2.53,0.57
MgAgSb0.985In0.015,550,165.45,96036,1.673,0.864
Bi0.95Ba0.05CuSeO,420,252,5000,0.767,0.174
(Cu0.001Pb0.999Te)(MnTe)0.03,623,-228.25,37397,1.251,0.97
Cu1.85Se,784,73.3,176923,3.393,0.22
Ca1.58Yb3.42Al2Sb6,515,37.57,21726,3.6,0.004
Ba0.15Yb0.01Co4Sb12,800,-190.34,100000,3.549,0.822
V0.855Ti0.1 CoSb,300,-57.9,209370,2.2,0.06
Rb2Bi8Se12.9805Cl0.0195,330,-112.7,21029,0.8,0.11
Ag2.0Se0.5Te0.5,360,-101,64587,0.667,0.356
Mg3.5Ho0.01Sb1.97Te0.03,400,-233.8,17869,0.989,0.395
Ag0.01Sn0.99Se0.8S0.2,518,405.98,558,0.158,0.302
Sn0.97Pb0.02Zn0.01Se,373,459.64,2795,1.075,0.205
Bi0.92Pb0.04Yb0.04CuSeO,847,232,6400,0.425,0.687
In0.005Pb0.995Te0.996I0.004,533,-208.9,34000,1.548,0.511
CuAgTe0.7Se0.3,397,258.97,6982,0.23,0.81
BiSb(Se0.94Br0.06)3,300,-112,26117,0.64,0.154
Zn0.9Cd0.1Sc0.01O1.015,573,-101,49000,4.94,0.058
ZrNiPb0.9Sn0.8Bi0.02,475,-154.3,161842,5.87,0.312
Cu11.5Gd0.5Sb4S13,525,111.14,86937,1.418,0.398
Gd0.04Co4Sb12,800,-222,46200,3.1,0.5
Mg3.5Ho0.02Sb1.97Te0.03,400,-225,22442,0.982,0.463
MgAgSb0.995In0.005,300,163.1,64685,1.229,0.438
Ag0.03Cr1.97Se3,566,148.4,28400,1.506,0.235
GeSe0.8Te0.2,776,121.4,43284,1.25,0.396
Bi0.96Ag0.04CuSeO,423,267.8,1477,0.538,0.083
Ag0.94CuSe,470,112.1,44930,1.241,0.257
Rb2Bi8Se12.909,526,-184,7600,0.655,0.207
Mg2ZnSb2,673,104.64,5629,1.026,0.04
Ca11Sb10,419,15.85,2165,0.831,0
Ag0.01Sn0.99Se0.9S0.1,616,432.05,596,0.212,0.323
Cu1.99In0.01Se,295,89.11,125700,0.825,0.357
(CaZn0.4Ag0.2Sb)0.83(LiZnSb)0.17,573,163.88,26694,0.717,0.573
Yb10LaCdSb9,1023,57.74,38935,1.593,0.083
AgBi0.98Pb0.02Se2.12,350,493.4,696,0.527,0.113
Mg2Zn0.98Sb2,773,186.2,18618,0.966,0.517
Tl0.8Co4SnSb11,150,6.76,107447,2.224,0
As2Te3,323,79.21,309.79,0.796,0.001
Ca3Co4O9,500,136.4,6826,2.6,0.024
GeSe0.5Te0.5,320,46.42,241791,2.956,0.056
Cu2.1Cd0.9SnSe4,600,148,21900,0.72,0.4
Ca5Ga2Sb6,425,417.34,640,1.095,0.043
Ag0.6Sb0.9Pb19.5Te19.1,573,-190.4,13350,1.654,0.16
MgAgSb0.995In0.005,550,182.73,54000,1.115,0.907
MgAgSb0.99In0.01,450,200.72,51636,1.013,0.933
Mg3.5Ho0.01Sb2,600,-296.8,2308,0.768,0.159
CuFeS2,390,-359,5143,5.787,0.045
Sm0.2Bi1.8Te3,473,-155.8,55600,0.736,0.867
ZrNiPb0.995Bi0.005,475,-209,101910,7.124,0.297
Cu2Sn0.9Zn0.1S3,523,107.3,41643,1.368,0.183
Ag3.9Mo9Se11,447,124.6,25285,0.77,0.228
Sb0.1Ge0.9Te,823,236.3,60550,1.653,1.697
(Sn0.985In0.015Te)0.95(AgCl)0.05,723,106.81,222472,3.633,0.505
CaZn0.4Ag0.2Sb,371,74.78,101563,1.164,0.181
Yb13.49Ce0.39Mn1.05Sb11.08,873,191,15850,0.677,0.746
CrSe3,512,149,27350,1.752,0.177
Ca3Co3.7Ti0.3O9,900,276.3,5920,1.89,0.215
Sr14.7Ga28.7Ge56.6,563,-124,78042,1.742,0.388
SnS,600,653,17,0.79,0.006
CuAgTe0.7Se0.3,349,248.64,9234,0.354,0.563
SnTe0.1AgSbSe2,400,70.8,170400,2.443,0.14
Mo3Sb7I1.25,323,21.2,571800,4.704,0.018
AgSb0.99Mn0.01Te2,444,123.86,40933,0.952,0.293
Ba8.04Cu4.99Si18Ge22.98,417,-154,28650,1.3,0.218
Cu5.133Sn1.866S6.3Cl0.7,327,61.93,82784,2,0.052
Mg3.07Sb1.5Bi0.46Se0.04,300,-281.52,7346,0.74,0.236
AgBiSe2.0,675,-251,4040,0.46,0.373
Cu7P(S0.6Se0.4)6,422,313.1,687,0.21,0.135
In0.075Co4Sb11.975,300,-237,44000,3.5,0.2
Cu2ZnSn0.98Ag0.02Se4,573,113.52,44034,3.175,0.102
Yb7Ca6BaMgSb11,1100,223.8,11200,0.675,0.914
Ba0.9K0.1Zn2As2,523,51.85,128000,3.18,0.057
Ag(Bi0.8Nb0.2)0.9Sb0.1Se2,478,-142,20706,0.629,0.317
Cu11.5Gd0.5Sb4S13,327,84.72,89851,1.386,0.152
Ca9Yb2Sb7Ge3,701,78.07,825,1.116,0.004
Cu0.98Pd0.02FeS2,70,-76.33,7880,17.16,0
Ag(Bi0.85Pb0.15)0.9Sb0.1Se2,526,400,464,0.427,0.091
Ag2Se,334,-117.04,172131,1.137,0.7
(Sn0.985In0.015Te)0.95(AgCl)0.05,623,92.46,278652,4.034,0.368
Cu3Sb0.996In0.004Se4,423,276.2,6600,1.704,0.125
Sr0.21Co4Sb12.25,550,-170,155000,3.8,0.648
Nb0.9Ta0.1CoSn0.9Sb0.1,530,-125.77,121135,4.809,0.211
Cu1.9Ag0.1SnSe3,300,116.67,5143,1.187,0.018
Sn0.93Pb0.06Zn0.01Se,373,498.21,1137,0.708,0.162
Li0.03Cu1.82Bi0.03Se,504,56.75,139080,1.652,0.137
Cu12Sb4S13,322,95.52,14111,0.492,0.083
Bi0.42Sb1.58Te3,373,240,38600,0.92,0.901
Cu2Se0.88S0.12,353,127.3,50900,0.474,0.611
In0.005Pb0.995Te0.999I0.001,481,-268.5,16000,1.473,0.377
(Cu0.004Pb0.996Te)(MnTe)0.03,623,-146.14,90959,1.675,0.723
Cu2S0.5Se0.5,673,260.2,8168,0.741,0.502
BiSb(Se0.92Br0.08)3,300,-110,27766,0.63,0.16
La0.5Co4Sb12,673,100,28283,2.706,0.07
Mg2Zn0.98Sb2,573,241.5,7649,0.74,0.351
Cu5SnSbSe6.3,300,37.47,185345,2.741,0.028
Eu(Zn0.5Cd0.5)2Sb2,400,204,26235,1.3,0.336
Bi0.92Pb0.04Yb0.04CuSeO,548,182.57,11034,0.566,0.356
Ca1.11Yb3.89Al2Sb5.77Ge0.23,422,44.81,17944,2.193,0.007
Cu5Sn2S6.65Cl0.35,667,101.99,81884,1.738,0.327
Co4Sb11.46Te0.43,300,-120,168000,3.9,0.2
Pb0.99Na0.01Te,597,222.88,50935,1.356,1.114
Cu2.82Ag0.18SbSe4,348,363,9378,1.38,0.312
Yb13.6Ce0.363Mn0.99Sb11.05,773,161.59,21627,0.784,0.557
Cu1.99S0.5Se0.5,673,220,15000,0.678,0.721
Cu5.133Sn1.866S6.65Cl0.35,515,86.93,97414,1.688,0.225
Tl4SnTe3,323,126,28700,0.52,0.272
Sn0.93Pb0.06Zn0.01Se,300,473.39,1500,0.854,0.134
Ca0.05BaGd1.95NiO5,736,226.47,65.9,1.568,0.002
Ge0.83In0.05Pb0.12Te,475,253.78,18489,0.953,0.593
(SnTe)0.9(CuSbTe2)0.1,525,79.67,186056,3.105,0.2
Bi0.42Sb1.58Te3,523,189.21,26064,1.32,0.37
Ba0.15Yb0.01Co4Sb12,500,-165,127500,3.82,0.445
Mn2Cu3In3Te8,575,447,170,1.206,0.016
Ge0.55Sb0.25Te0.8(AgSnSe2)0.2,423,189,33548,0.757,0.67
Ca5Ga1.7Zn0.3Sb6,724,102.3,43500,1.34,0.246
CrO0.09N0.9,50,-23.46,11616,1.22,0
(Zn0.95In0.05)4Sb3,448,177.3,23100,0.81,0.402
Eu0.19Co4Sb12,300,-118,152500,3.3,0.2
MgAgSb0.985In0.015,450,186.18,67207,1.275,0.822
Nb0.95Ta0.05CoSn0.9Sb0.1,728,-145.14,106099,4.552,0.357
Ce0.75Fe3CoSb12,603,95.4,97073,6.049,0.088
Zn0.9Cd0.1Sc0.03O1.045,1173,-159.46,25000,2.76,0.27
Tl0.1Co4Sb12,50,-32.77,224444,4.12,0.003
Al0.03Ge0.97Te,773,129.11,205357,3.35,0.768
(PbTe)(MnTe)0.03,423,-212.3,58483,1.632,0.683
Cu7P(S0.6Se0.4)6,673,293.3,2220,0.204,0.63
Ca1.14Yb3.86Al1.68In0.32Sb6,528,187.02,5610,0.908,0.114
Ag(Bi0.9Pb0.1)0.9Sb0.1Se2,576,366.67,355.86,0.429,0.064
Cu3.0SbSe4,573,356,5890,1.12,0.382
Sn0.97Pb0.01Cd0.025Se,573,395.67,2079,0.564,0.331
Ge0.6Sb0.2Te0.8(AgSnSe2)0.2,623,197.52,38710,0.786,1.282
Er0.03(Bi0.23Sb0.77)1.97Te3,500,196.9,31600,1.122,0.546
Cu7P(S0.25Se0.75)6,623,221.9,6234,0.319,0.6
Rb2Bi8Se12.974Cl0.026,330,-92.1,30150,0.9,0.094
Co0.99Ni0.01GeTe,478,-142.34,48138,5.114,0.091
CuGa0.98Mn0.02Te2,425,278.8,10439,4.532,0.076
SnTe0.15AgSbSe2,500,101,112400,2.01,0.285
Ca14MgBi11,326,56.42,19835,0.753,0.027
ZrNiPb0.995Bi0.005,673,-225,81483,6.033,0.458
Y0.2Bi1.8Te3,458,-150,66600,0.74,0.925
In0.01Pb0.99Te0.994I0.006,378,-179.2,57900,1.774,0.396
Mg3.5Gd0.04Sb2,600,-290.85,12405,0.709,0.888
CaTiO3,740,-280,2450,3.35,0.042
Ag0.01Sn0.99Se0.85S0.15,763,362.39,1451,0.13,1.118
Yb13CaMnSb11,573,109,32400,0.897,0.242
Rb2Bi8Se12.9935,428,-263.6,5455,0.608,0.267
In4Pb0.01Sn0.03Se2.9Cl0.02,473,-229.4,13900,0.744,0.472
Ti0.925Mn0.075NiSn0.925Sb0.075,498,-97.51,255629,6.45,0.188
CoSb3.0,623,150,10526,4.3,0.034
MgAgSb,300,172.18,49818,1.066,0.416
Ba0.14In0.23Co4Sb11.84,300,-128,194400,1.5,0.4
Ba8.01Ga15.89Zn0.006Sn30.1,540,404.6,10940,1.022,0.946
TmCuTe2,818,179.7,19177,0.694,0.73
Sr0.21Co4Sb12.25,800,-193,125000,3.68,1.012
Mg3.5Gd0.03Sb2,600,-272.89,13942,0.762,0.818
Ta0.96Ti0.04FeSb,304,178.5,77700,6.92,0.109
Ag0.04Cr1.96Se3,300,80,38107,1.518,0.048
Ag2Se1.04,362,-141.4,126300,1.08,0.847
Cu2Se0.98S0.02,372,113,72000,0.574,0.596
Zn0.875Cd0.125Sc0.02O1.03,973,-139,25300,3,0.159
Ge0.55Pb0.45Te0.8Se0.2,470,126.7,23904,0.968,0.18
Cu1.85Ag0.15SnSe3,400,288.78,980,0.695,0.047
YbCd1.7Zn0.3Sb2,450,160,60200,1.54,0.462
Pb0.96Tl0.02Na0.02Te,696,236.6,38860,0.944,1.604
FeNb0.86Zr0.14Sb,400,117.96,354264,9.644,0.204
Ca0.99Yb4.01Al2Sb5.84Ge0.16,565,198.58,2570,0.978,0.059
CuGa0.97Mn0.03Te2,575,231,20783,2.794,0.228
Ca3Co2O6,473,213.6,111,6.71,0
Ba8.07Cu4.89Si41.03,665,-82.6,115320,2.723,0.192
Tl8.99Sb1.01Te6,385,137,40400,0.607,0.481
Bi1.92Nb0.08Te3,426,-112.53,112792,0.814,0.747
ZrNiPb0.98Bi0.02,871,-155.1,186420,7.14,0.547
Ta0.74V0.1Ti0.16FeSb,969,227.7,86880,1.56,1.52
(SnTe)0.88(CuSbTe2)0.12,323,40.11,299153,3.516,0.044
Sn0.91Mn0.08Bi0.01Te,323,51,322000,4.31,0.063
Cu1.95In0.05Se,295,194.55,14865,1.25,0.155
GeSe0.85Te0.15,728,71.26,27985,1.583,0.065
Zn0.875Cd0.125Sc0.02O1.03,1173,-156,20700,2.583,0.229
Sn0.92Ge0.04As0.04Te,620,65.06,343210,5.233,0.382
AgCuSe,298,-74.56,89860,1.661,0.09
Cu2SnSe3,622,212.57,4084,1.28,0.09
(SnTe)10Sb2Te3,423,102.93,153125,2.19,0.313
Bi0.825Ba0.175CuSeO,623,191.67,13413,0.605,0.631
Al0.01Sb0.1Ge0.89Te,373,181.99,48755,1.424,0.365
Co9S8,300,-19.2,1269362,10,0.014
MgAgSb0.985In0.015,300,148.9,90185,1.425,0.421
Sn0.91Mn0.09Te0.98I0.02,331,59.28,223590,3.374,0.077
Sn0.98In0.02Se,523,492,70,0.631,0.014
GeTe,373,42.86,591071,6.101,0.066
Cd2Cu3In3Te8,377,159.46,17034,1.685,0.097
Ta0.84Ti0.16FeSb,670,183.6,162953,4.135,0.89
In4Se2.32Cl0.03,623,-296.7,12000,0.738,0.892
AgBi0.85Sb0.15Se2,575,194.15,165.9,0.327,0.011
Pb0.99Na0.01Te,497,164.05,88159,1.872,0.63
LiGe3.5Sb2Te7,473,232.6,29000,0.938,0.75
Ca3Co2O6,673,157,2000,5.33,0.006
Cu2.82Ag0.18SbSe4,448,408,5851,1,0.43
Ag0.4Sb1.1Pb19.6Te18.8,573,-120,18400,1.34,0.113
GeSe0.6Te0.4,630,100,144776,2.183,0.418
Cu7P(S0.55Se0.45)6,523,284,1580,0.228,0.292
Cu26V2Ge3Sb3S32,674,206.02,24605,0.955,0.737
Mg0.97Li0.03Ge0.8Si0.2,500,325.5,8923,2.766,0.171
Mg3.5Gd0.01Sb2,700,-323.94,5062,0.725,0.513
NbCo0.98Ni0.02Sn,1001,-194.71,37160,6.619,0.213
Cu11.8Gd0.2Sb4S13,327,79.12,110412,1.411,0.16
Bi2.0S2.85Se0.15,723,-495,547,0.51,0.19
Eu(Zn0.5Cd0.5)2Sb2,450,217,24566,1.2,0.434
(Ag0.1Sb0.1Sn0.8)(S0.1Se0.1Te0.8),303,60.79,145794,1.811,0.09
GeTe,475,52.67,396552,4.854,0.108
Mg0.99Li0.01Ge0.9Si0.1,600,318.12,12692,2.975,0.259
Sn0.99Ce0.01Te,423,32,400000,5.324,0.033
Ca10MnSb9,473,32.09,9.57,0.655,0
YbCd1.7Zn0.3Sb2,350,128.6,71800,1.76,0.248
Ba8.07Cu4.89Si41.03,811,-92.5,100000,2.918,0.238
Sn0.87Mn0.1Bi0.03Te,773,144,100000,2.67,0.593
As2Te1.5Se1.5,373,587.76,13.89,0.341,0.005
In3.94Pb0.06Se3,518,-256,8100,1.174,0.234
Ba0.03Co4Sb12,400,-244.3,34000,4.753,0.167
Ca9Yb2Sb7Ge3,419,52,206,0.997,0
AgCuTe0.8Se0.2,623,178.42,24854,0.563,0.876
Ca3Co2O6,373,227,17,7.43,0
EuCd2Sb2,550,307,7500,0.81,0.48
Cu1.85Se,301,25.58,493269,2.881,0.034
ZrNiPb0.92Sn0.6Bi0.02,303,-97,333333,5.9,0.161
AgCuTe0.9Se0.1,422,181.15,24078,0.358,0.886
Cu1.8Se,295,16.8,882432,7.063,0.01
Pb0.97Tl0.015Na0.015Te,301,119.16,95296,2.139,0.19
Yb13.49Ce0.39Mn1.05Sb11.08,1073,222.81,12393,0.662,0.997
Ag8Sn0.6Ga0.4Se6,640,-213.79,7459,0.298,0.732
Cu2.88Ag0.12SbSe4,598,350,8000,0.85,0.67
Ca3Al0.98Zn0.02Sb3,822,277.3,3830,0.672,0.36
YbSi2,377,-46.2,700000,9.15,0.062
Cu3Sb0.998In0.002Se4,323,270,4255,2.403,0.042
AgCuSe,694,230.5,9100,0.529,0.607
LiGe11.5Sb2Te15,623,256.7,41600,1.339,1.3
AgBiSe2,400,-83.33,36,0.476,0
Bi2.0S2.79Se0.21,723,-536,419,0.48,0.181
GeSe,623,742.8,53.11,1.136,0.016