Formula,T,Seebeck,s,k,ZT
Ca0.99Yb4.01Al2Sb5.84Ge0.16,517,212.74,2056,0.97,0.05
Yb9Ca4BaMgSb11,1200,235.9,11493,0.61,1.257
AgSb0.99Mn0.01Te2,301,76.7,51733,0.997,0.092
Ca5Al1.9Zn0.1Sb6,773,167.3,16313,0.98,0.36
Pb0.96Tl0.02Na0.02Te,597,220.59,45914,1.15,1.16
Ag0.01Sn0.99Se0.9S0.1,518,385.04,698,0.197,0.272
Ba8.03Cu5Ge40.97,465,-125,42120,1.27,0.241
Pb6Bi2Se9,673,-193.2,10962,1.118,0.246
Ag2.0Se0.6Te0.4,330,-109,78350,0.706,0.435
Mg3Sb1.8Bi0.2,470,357,559,0.91,0.037
SnAgSbSe2,800,118.2,115800,3.37,0.41
Ba8.01Ga15.83Zn0.019Sn30.15,420,466.5,4480,0.757,0.541
Bi0.875Ba0.125CuSeO,420,178.2,15000,0.859,0.258
Bi1.94Nb0.06Te3,505,-115.6,57078,0.847,0.455
Ba0.11Yb0.08Co4Sb12,300,-107,211500,2.38,0.3
Ge12Sb2Te15,523,233.3,30300,1.49,0.579
SnTe,500,49,413460,6.55,0.076
Na0.13Co4Sb12,700,-259,41000,3.2,0.5
Ba8.04Cu4.9Si3.23Ge37.83,663,-129.8,55000,1.506,0.408
Cu11.7Gd0.3Sb4S13,523,106.01,108671,1.434,0.446
Ag(Bi0.8Nb0.2)0.9Sb0.1Se2,378,-77,46416,0.714,0.146
Ge0.96Mn0.02Sb0.02Te,698,187,100000,1.786,1.367
Ge4Sb2Te7,723,132,72480,1.765,0.517
Mg3.5Gd0.04Sb2,500,-278,13524,0.806,0.649
Cu5SnSbSe6.3,673,83.12,101724,2.06,0.23
Sr0.11Ba0.18Co4Sb12.09,850,-166,206818,3.97,1.22
Nd2.92Te4,773,-68,129600,2.765,0.168
Cu2.8Sn0.2Sb0.8Se3.8,372,44.57,370149,5.24,0.052
Nb0.8Ta0.2CoSn0.9Sb0.1,338,-104.23,122979,4.918,0.092
BiCuSeO,873,326.4,2450,0.437,0.521
AgBi0.7Sb0.3Se2,378,-361.11,400,0.469,0.042
Ca1.18Yb3.82Al1.84In0.16Sb6,520,36.19,28545,2.7,0.007
Cu11.6Gd0.4Sb4S13,327,81.3,102008,1.3,0.17
Cu10.5Ni1.3Zn0.2Sb4S13,715,200.7,22670,0.732,0.891
BaCu4.0S3.0,700,141,9381,0.864,0.151
NbCoSb,303,-59.2,239370,3.98,0.04
Li1.01Co0.85Ni0.15O2,423,269.5,0.26,0.98,0
As2Te1.5Se1.5,323,575.51,7.8,0.347,0.002
AgCuTe0.9Se0.1,723,225.87,17864,0.578,1.14
Ag2Se0.98,332,-115.6,184930,1.192,0.688
Sn1.03Se0.15Te0.85,623,88.88,144737,2.786,0.256
(Cu0.003Pb0.997Te)(MnTe)0.03,523,-173.16,83699,1.584,0.829
Ba8.02Cu5.04Si6Ge34.93,615,-115.52,56349,1.377,0.336
Cu2ZnSnSe4,673,192,12300,3.018,0.101
Cu2Sn0.95Fe0.05Se3,523,87.86,86824,2.314,0.151
Mg2ZnSb2,300,427.5,662,0.734,0.049
Ge0.99Mn0.01Te,298,32.58,589691,6.781,0.028
In0.005Pb0.995Te0.994I0.006,637,-162.3,44450,1.421,0.525
Mn2Cu3In3Te8,625,432.4,320,1.048,0.036
Er0.01(Bi0.23Sb0.77)1.99Te3,350,241.79,46228,0.861,1.099
(SnTe)0.86(CuSbTe2)0.14,324,42.58,278383,3.391,0.048
Ba8Cu5.04Si13.01Ge27.96,665,-116.2,57450,1.814,0.284
Ag8SnSe6,640,-145.1,19440,0.405,0.647
Ba0.10La0.05Yb0.15Co4Sb12,850,-174,171500,0.3,1.4
Cu2Se0.9S0.1,769,202.97,19811,0.437,1.435
Ge9Sb2Te12,827,168.75,95455,1.687,1.333
Ba8Cu5.04Si13.01Ge27.96,466,-91.8,74300,1.87,0.156
(GeTe)0.9(AgSnSe2)0.1,523,53.4,291613,3.515,0.124
Tl9.0Sb0.98Te6,444,159,32455,0.586,0.63
(GeTe)0.9(AgSnSe2)0.1,423,46.58,276129,2.99,0.085
NbCo0.92Ni0.08Sn,1002,-144.2,81429,5.55,0.306
Sn0.9Pb0.09Zn0.01Se,300,507.09,274,1.266,0.017
Ba0.99K0.01Zn2As2,523,158.64,29358,1.681,0.23
Ba0.03Co4Sb12,700,-184.83,32978,3.729,0.211
AgBi0.97Pb0.03Se2.12,350,423.18,1301,0.534,0.153
Sn0.98Ce0.02Te,623,101.7,129114,2.536,0.328
CuFe0.98In0.02S2,510,-353,4800,2.743,0.111
Li1.04Co0.85Ni0.15O2,923,280.5,200,1.19,0.012
BaCu4.0S3.0,600,111,10825,0.875,0.091
Tl9.0Bi0.95Te6.0,500,198,21000,0.5,0.823
As2Te2.6Se0.4,298,203.96,623.22,0.619,0.012
BaBiTe2.9Se0.1,474,-191,4245,0.396,0.185
CuFeS2,10,-97.7,1.08,11.7,0
Cu3Sb0.9Ge0.1S4,300,150,28400,2.1,0.091
Cu5Sn2Se7,698,51.06,233635,3.314,0.128
Yb10Ca3BaMgSb11,300,50,19826,0.53,0.028
Ga0.06Co4Sb11.97Ga0.03,650,-289,19300,2.3,0.4
Ag8Sn0.7Ga0.3Se6,673,-158.41,16304,0.358,0.78
BaCu3.96S3.0,500,84,20103,0.773,0.092
Mg1.98Ag0.02Zn0.98Sb2,773,165.7,27513,0.973,0.6
CuFeS2,510,-361.6,4880,3.512,0.093
Zn0.95Cd0.05Sc0.02O1.03,1073,-153,11300,3.75,0.076
SnTe0.2AgSbSe2,600,127.93,72819,1.086,0.717
ZrNiPb0.94Sn0.4Bi0.02,475,-115.61,293000,5.577,0.334
In0.005Pb0.995Te0.998I0.002,663,-231,17936,1.269,0.5
Bi2.0S3.0,623,-601,83,0.47,0.04
Bi0.8Pb0.1Yb0.1CuSeO,446,102.96,24000,0.697,0.163
Ce0.15Co4Sb12,300,-119,151500,2.4,0.2
Yb8Ca5BaMgSb11,1200,229.6,10923,0.67,1.032
Nd3Te4,773,-57,190000,3.368,0.14
Co0.97Ni0.03GeTe,626,-118.09,71542,4.313,0.145
(SnTe)12Sb2Te3,623,143.53,105000,2,0.674
ZrNiPb0.96Sn0.2Bi0.02,475,-110.9,351120,6.342,0.323
FeNb0.80Ti0.20Sb,900,180,125000,4.7,0.776
LiCo0.85Ni0.15O2,423,211.03,0.21,2.034,0
LiGe11.5Sb2Te15,723,266,37640,1.339,1.45
Ba0.19In0.07Co4Sb11.85,300,-151,161900,2,0.4
Ge0.55Pb0.45Te0.8Se0.2,668,129.81,29851,1.028,0.3
SnSe,823,325.33,5302,0.639,0.723
Nb0.8Ta0.2CoSn0.9Sb0.1,530,-131.15,109078,4.49,0.221
CuFe0.96In0.04S2,300,-363.6,3488,4.232,0.033
Cu2.94Ag0.06SbSe4,448,435,4384,1.31,0.284
Bi1.92Nb0.08Te3,366,-103.51,113961,0.84,0.532
Ag0.5Sb1.1Pb19.6Te18.8,573,-100,24288,1.422,0.098
Yb10LaCdSb9,473,40.73,28800,0.847,0.027
Ca9Yb2Sb9Ge,701,15.11,18763,1.113,0.003
K0.985Ba0.015GaSb4,509,-211.9,20000,0.893,0.512
Ca5Ga1.8Zn0.2Sb6,624,94.6,42070,1.413,0.166
Sr14.5Ga29.2Ge56.3,367,-113.89,81502,1.6,0.242
Hf0.9Ti0.1CoSb0.8Sn0.2,473,176,68794,3.38,0.298
YbCd1.4Zn0.6Sb2,650,178.16,50000,1.244,0.86
Mg2.16(Si0.4Sn0.6)0.985Bi0.015,400,-159,146400,2.435,0.609
Ba0.95K0.05Zn2As2,423,39.51,160000,3.336,0.032
BiSb(Se0.94Br0.06)3,400,-141,22500,0.57,0.314
Ca1.14Yb3.86Al1.68In0.32Sb6,627,175.41,5427,0.933,0.112
(Cu0.001Pb0.999Te)(MnTe)0.03,523,-217.02,51103,1.515,0.831
Cu1.9Ag0.1SnSe3,500,163.64,4071,0.727,0.075
AgBi0.95Pb0.05Se2.12,300,329,2735,0.57,0.156
La0.25Ca0.75TiO3,840,-146.3,36560,2.9,0.227
Co0.99Ni0.01GeTe,776,-93.83,72340,4.84,0.102
Cu5Sn2S7,422,42.05,243011,4.238,0.043
(Sn0.8Ge0.2)0.8Mn0.2Te,773,142,85460,1.56,0.854
LiGe3.5Sb2Te7,723,275.33,31111,0.897,1.9
SnS0.88Se0.12,300,184,102724,2.37,0.44
(SnTe)0.86(CuSbTe2)0.14,432,61.2,210400,3.16,0.108
Tl0.1Co4Sb12,100,-75.6,171180,4.82,0.02
Sn0.98In0.02Se,473,472,58,0.67,0.008
Yb9Ca4BaMgSb11,500,128,17200,0.564,0.25
Pb0.97Tl0.015Na0.015Te,696,239.22,35684,0.933,1.523
(PbTe)0.15(Ag2Te)0.85,450,-140.6,37230,0.555,0.602
Bi1.2Sb0.8Se2.88Cl0.12,400,-123,22652,0.77,0.178
Mg3.5Gd0.02Sb2,400,-241.07,12249,0.987,0.288
(Sn0.8Ge0.2)0.94Mn0.06Te,573,86.7,173100,2.46,0.302
Cu1.5S,550,24.59,436190,5.11,0.028
(Sn0.985In0.015Te)0.9(AgCl)0.1,823,127.25,146067,2.256,0.863
Ag8SnSe6,426,-440.8,495,0.262,0.14
Co0.99Ni0.01GeTe,551,-139.57,48404,4.758,0.109
In0.30Co4Sb11.90,750,-236,78000,1.6,1.2
Ge0.83In0.05Pb0.12Te,325,212.44,19263,0.973,0.29
Bi1.2Sb0.8Se2.88Cl0.12,700,-197,11320,0.62,0.496
Ba0.99K0.01Zn2As2,623,191.36,23358,1.475,0.361
Bi2Te3,473,-156.8,77300,0.959,0.938
Mo3Sb7,823,44.7,401150,6.973,0.095
Ag0.01Cu1.965S0.5Se0.5,300,120,5147,0.452,0.049
Mg3Sb1.8Bi0.2,332,306,333,1.17,0.009
K8Ga8Ge38,100,0.68,170.98,1.183,0
Ag2.0Se0.5Te0.5,330,-95,64495,0.648,0.296
In0.015Pb0.985Te0.996I0.004,481,-230.45,20780,1.4,0.379
Cu1.85Se,603,44.42,274038,3.697,0.088
Mo3Sb7I1.25,820,57.68,400000,6.214,0.175
Nd2.86Te4,973,-122,68000,1.684,0.585
Ca3.2Yb1.65Pr0.15Al2Sb6,523,48.8,3750,1.455,0.003
FeNb0.80Ti0.20Sb,500,111,270000,5.9,0.282
Ca5Ga1.9Zn0.1Sb6,773,152.9,23180,1.082,0.385
Ag0.97CrSe2,753,157.48,10000,0.399,0.468
Zn2Cu3In3Te8,424,159,17900,2.452,0.078
FeNb0.86Zr0.14Sb,500,139.08,272093,8.576,0.307
Ag0.97Cr0.97Bi0.03Se2,703,151.92,12877,0.396,0.528
TiZr0.005NiSn,423,-160,51077,2.67,0.219
(PbTe)0.05(Ag2Te)0.95,350,-92.5,145550,0.821,0.531
ZrNiPb,871,-124.9,61219,6.86,0.121
Cu2Se,425,118,51060,0.856,0.353
Li1.01Co0.85Ni0.15O2,623,306,7.46,1.17,0
Cu2Se0.96S0.04,750,210.53,25457,0.8,1.058
VFeSb,700,-187.2,56024,4.723,0.278
Ba1.9Bi0.1CoRuO6,418,30.87,86290,1.433,0.024
Rb2Bi8Se12.9935,625,-273,5000,0.534,0.436
Ba8.04Cu4.9Si3.23Ge37.83,466,-89.8,77600,1.55,0.188
(CaZn0.4Ag0.2Sb)0.83(LiZnSb)0.17,673,185.86,20767,0.646,0.747
Mg3Sb1.6Bi0.4,750,186.4,1990,0.416,0.129
Sr0.21Co4Sb12.25,700,-188,131818,3.62,0.901
Cu2Se0.7S0.3,333,53.47,126000,0.875,0.137
Ta0.94Ti0.06FeSb,570,202.4,116800,5.03,0.544
Ca0.99Yb4.01Al2Sb5.84Ge0.16,373,218.87,1075,1.096,0.018
NbCo0.9Ni0.1Sn,1001,-210.72,48284,5.5,0.39
Ca5Ga2Sb6,525,274.57,863,1.005,0.036
Cu5SnSbSe6.3,373,41.95,175862,2.672,0.043
Sn0.93Pb0.06Zn0.01Se,773,402,5082,0.338,1.86
Pb0.985Zn0.03Te,520,-265.3,29400,1.39,0.782
GeSe0.65Te0.35,320,11.56,131716,1.888,0.003
(Cu3SnS4)0.895(Ga2Te3)0.105,746,138.3,63800,1.48,0.615
Sn0.97Mn0.03Te,331,41.8,265089,6.342,0.024
Ge0.85In0.05Pb0.1Te,475,248.4,27913,0.953,0.858
YbCd1.4Zn0.6Sb2,350,125.45,75926,1.67,0.25
AgSb0.95Mn0.05Te2,545,137.6,58400,1.095,0.55
Cu22Sn9.25Sb0.75S32,300,62.79,171429,2.86,0.071
Mg0.98Li0.02Ge0.9Si0.1,500,290.94,13000,3.302,0.167
Cu2Sn0.95Zn0.05S3,723,196,10000,0.492,0.565
Cu2.94Ag0.06SbSe4,573,368,5944,1,0.47
Ge0.55Pb0.45Te0.3Se0.7,668,296.25,6044,0.616,0.69
FeNb0.9Zr0.1Sb,700,193,155040,8.068,0.501
Ba0.9K0.1Zn2As2,423,37.04,168421,3.464,0.028
GeTe,473,61.61,425000,5.091,0.15
Ge0.83In0.05Pb0.12Te,425,254.45,16862,0.927,0.501
Sm0.2Bi1.8Te3,458,-154.8,56600,0.69,0.92
Tl4PbTe3,623,204.2,11200,0.521,0.558
(Cu3SnS4)0.85(Ga2Te3)0.15,800,225.25,9856,0.717,0.558
BaHoCo4O7,368,134,87,0.58,0.001
Mg2.16(Si0.4Sn0.6)0.99Bi0.01,400,-175.4,107170,2.244,0.588
CoAsSb,400,-128.74,22690,2.817,0.053
GeSe0.9Te0.1,776,185.04,4153,0.782,0.141
Ca0.15BaGd1.85NiO5,611,192.65,202.08,1.952,0.002
Cu1.925Ag0.075SnSe3,300,100,13364,1.61,0.025
Bi0.95Ba0.05CuSeO,522,264,4275,0.695,0.224
Ba0.38Co4Sb11.74,850,-137,204400,0.5,0.8
Mg2.9875Na0.0125Sb2,323,100,24000,1.73,0.045
(Cu0.005Pb0.995Te)(MnTe)0.03,623,-145.09,107671,1.703,0.829
Cu3ErTe3,900,124.2,33333,0.62,0.746
Ca0.25BaGd1.75NiO5,1087,162.5,442.74,1.263,0.01
Ag(Bi0.9Pb0.1)0.9Sb0.1Se2,378,538.89,272.83,0.527,0.057
Pb0.985Zn0.03Te,419,-217.12,53200,1.787,0.588
AgBi0.99Pb0.01Se2.12,300,565.13,142.4,0.556,0.025
Bi1.2Sb0.8Se2.82Cl0.18,300,-92,36263,0.83,0.111
Nd2.92Te4,1073,-96.54,93143,2.405,0.387
Mg3.5Ho0.03Sb1.97Te0.03,400,-208.8,23829,0.955,0.435
Cu1.85Se,399,22.99,467308,4.046,0.024
Ag1.1Sb0.8Pb15.5Te22.6,623,326.4,3940,0.908,0.288
Ca0.2BaGd1.8NiO5,999,156.62,374.69,1.535,0.006
Cu2.88Ag0.12SbSe4,623,346,7720,0.79,0.75
Sb0.1Ge0.9Te,473,214.07,46789,1.473,0.658
In4Pb0.01Sn0.03Se2.9Cl0.02,673,-262.4,13760,0.568,1.122
FeVSb,500,-232,72000,7.22,0.268
Sn0.97Pb0.01Cd0.025Se,373,337,2889,0.877,0.14
Ag0.01Sn0.99Se0.8S0.2,666,424.79,675,0.182,0.445
Sr14.5Ga29.2Ge56.3,463,-130,70237,1.572,0.35
AgSn25.0BiTe27.0,500,93,150000,2.87,0.226
(CuI)0.003Bi2Te3,568,-151.47,79900,1.729,0.602
K0.98Ba0.02GaSb4,649,-221.43,16330,0.648,0.802
Sr0.16Yb0.03Co4Sb11.82,600,-168,185455,3.4,0.924
Ge0.58Sb0.22Te0.8(AgSnSe2)0.2,723,181.4,51620,0.86,1.428
Sn0.98Pb0.01Zn0.01Se,473,500,1560,0.905,0.204
Mg3.5Ho0.01Sb2,500,-290.07,2561,0.86,0.125
Eu14MgBi11,521,42.5,52143,1.626,0.03
FeNb0.92Ti0.08Sb,300,120,400000,13,0.133
Bi1.2Sb0.8Se2.82Cl0.18,400,-116,28287,0.77,0.198
CoSb3.0,723,137,16129,4.4,0.05
Ca5Al1.9Zn0.1Sb6,525,133.6,21640,1.175,0.174
Ta0.88Ti0.12FeSb,670,191.1,146657,4.31,0.836
AgCuTe0.8Se0.2,723,179.7,28835,0.615,1.093
Cu12Sb4S13,425,87.51,97672,1.522,0.209
Li1.01Co0.85Ni0.15O2,723,321,20.36,0.996,0.002
Tl4SnTe3,623,200,13000,0.49,0.667
Ca14MgBi11,1013,91.79,33641,1.495,0.192
In0.01Pb0.99Te0.999I0.001,533,-224.3,15560,1.395,0.299
Ba0.5Cr5Se8,803,268.92,1640,0.851,0.112
SnTe,600,64.4,306730,5.61,0.136
SnTe,300,34.86,777885,7.95,0.036
Sn0.97Pb0.02Zn0.01Se,473,507.09,1319,0.948,0.169
Bi0.92Pb0.04Yb0.04CuSeO,350,149,16410,0.71,0.18
Nd3Te4,973,-71,157282,3.11,0.248
(SnTe)15Sb2Te3,423,74.2,228000,3.3,0.161
Mg3.07Sb1.5Bi0.47Se0.03,600,-299.89,11414,0.682,0.903
GeSe0.7Te0.3,320,13.84,101119,1.641,0.004
Sb0.05Ge0.95Te,373,81.48,269725,3.491,0.191
Cu3Sb0.997In0.003Se4,373,271,5900,1.95,0.083
Nb0.8Ta0.2CoSn0.9Sb0.1,628,-145.19,99574,4.345,0.303
BaCu3.96S3.0,300,55,26856,0.685,0.036
Ca5Al1.9Zn0.1Sb6,425,118.2,23770,1.27,0.111
Ag0.94CuSe,549,202.6,20065,0.616,0.734
ZrNiPb,303,-228.2,14590,7.669,0.03
Cu2Se,372,99.84,79524,0.708,0.417
Nd2.9Te4,773,-77,108000,2.43,0.19
Ge0.55Pb0.45Te0.4Se0.6,569,295,6790,0.772,0.398
Sn0.97Pb0.01Cd0.025Se,423,350,3111,0.788,0.205
Sn0.96Pb0.03Zn0.01Se,300,443.66,3578,1.123,0.188
Nb0.8 Co0.92Ni0.08Sb,299,-106.3,80100,3.85,0.07
Mg3.07Sb1.5Bi0.47Se0.03,700,-301.52,11448,0.656,1.111
Li0.03Cu1.85Se,399,42.21,167308,2.313,0.051
Tl9.0Bi0.96Te6.0,385,167.8,28640,0.56,0.554
Mg3.5Ho0.01Sb2,400,-245.77,2632,0.988,0.064
S0.26Co4Sb11.11Te0.73,850,-221,81000,0.9,1.5
Cu2.88Ag0.12SbSe4,523,397,6877,1,0.56
BiCu0.925SeO,523,270,1760,1.1,0.061
BaBiTe3,474,-170.45,9563,0.434,0.303
Ba0.08Yb0.09Co4Sb12,800,-191.38,114400,2.466,1.3
(Cu0.004Pb0.996Te)(MnTe)0.03,323,-203.51,58483,1.795,0.436
Li0.03Cu1.83Bi0.02Se,711,78.46,143678,2.018,0.312
Gd2.75Se4,850,-202.9,4340,0.743,0.204
NbCo0.98Ni0.02Sn,704,-167.65,52619,7.75,0.134
Cu3SbSe4,372,391.3,3590,2.35,0.097
SnTe0.1AgSbSe2,700,134,89000,1.903,0.588
Bi0.96Ag0.04CuSeO,823,340,2675,0.468,0.544
Yb7Ca6BaMgSb11,1200,233.8,10970,0.706,1.02
Nb0.83 CoSb,1123,-204,55880,1.93,0.9
Sn0.98In0.02Se,773,378,582,0.67,0.098
Al0.01Sb0.1Ge0.89Te,323,151.34,54779,1.38,0.237
(Sn0.985In0.015Te)0.9(AgCl)0.1,523,83.48,289888,3.322,0.318
Ba8.01Ga15.88Zn0.009Sn30.11,580,424.3,7300,1.195,0.638
Cu11.6Gd0.4Sb4S13,525,106.94,95734,1.37,0.42
SnS0.91Se0.09,723,375.4,12200,0.873,1.424
Bi0.92Pb0.08CuSeO,100,39.6,189824,2.102,0.014
Mg2.16(Si0.4Sn0.6)0.98Bi0.02,400,-144.8,154100,2.52,0.513
Hf0.8Ti0.2CoSb0.8Sn0.2,480,192.9,54894,2.792,0.351
Mg2Zn0.98Sb2,673,208,12632,0.842,0.437
Ca10GaSb9,473,45.9,314,0.648,0
GeSe0.5Te0.5,776,132.7,113806,2.31,0.673
NbCo0.92Ni0.08Sn,492,-89.12,146190,8.285,0.069
As2Te1.5Se1.5,473,543.8,32.95,0.324,0.014
Ag(Bi0.85Nb0.15)0.9Sb0.1Se2,676,-167,17666,0.652,0.511
Ca14MgBi11,914,85.97,33333,1.4,0.161
AgBi0.95Sb0.05Se2,500,175.53,141,0.446,0.005
Cu3Sb0.997In0.003Se4,423,284,6200,1.68,0.138
CuGa0.99Mn0.01Te2,525,365,5700,2.589,0.154
Rb7.88Au2.47Ge43.53,50,-4.24,94.88,1.344,0
Ca11Sb10,701,14.96,2100,1.059,0
Cu3.0SbSe4,598,338,6670,1.06,0.44
Bi2.0S2.85Se0.15,423,-470,718,0.64,0.105
Ba8Cu5.18Si9.98Ge30.85,760,-140,43500,1.66,0.39
Mg2.16(Si0.4Sn0.6)0.99Bi0.01,500,-198.6,90503,2.054,0.87
Mg3Sb2,332,193,207,1.34,0.002
Ce0.2Bi1.8Te3,473,-155.03,63090,0.569,1.26
Yb10LaCdSb9,973,59.49,37440,1.287,0.1
Sr0.12Co4Sb12.46,850,-180,62500,2.7,0.5
Mg0.98Li0.02Ge0.9Si0.1,400,272.8,11050,4.032,0.082
Li2Ge3Sb2Te7,573,247.4,26944,0.782,1.209
In0.005Pb0.995Te0.998I0.002,533,-238.2,21550,1.35,0.483
Cu2CdSnSe4,700,297.4,3103,1.012,0.19
(SnTe)20Sb2Te3,673,135.64,114304,2.51,0.564
ZrNiPb0.995Bi0.005,871,-180.4,83600,7.074,0.335
Mo3Sb7I1.5,423,13.7,456500,4.71,0.008
Ba0.08Yb0.09Co4Sb12.12,300,-126,206800,1,0.4
Li1.1Co0.85Ni0.15O2,323,146,0.78,1.939,0
LiCo0.92Ni0.08O2,923,561.6,40,1.227,0.009
Bi0.9Ag0.1CuSeO,623,315.7,2030,0.495,0.255
Bi0.875Ba0.125CuSeO,522,192.95,12452,0.783,0.327
Pb0.99Tl0.005Na0.005Te,696,273.2,25373,0.983,1.341
Ba0.97K0.03Zn2As2,423,59.88,118519,2.908,0.062
Sr14MgBi11,621,72.99,53480,1.341,0.132
Ba8.02Cu4.98Si35Ge5.99,811,-102.1,81700,2.408,0.287
Bi0.9Ag0.1CuSeO,723,325,2130,0.464,0.351
Sr0.21Yb0.03Co4Sb12.12,650,-163,204091,3.64,0.968
Sn1.03Se0.12Te0.865Br0.015,323,18.27,492105,4.585,0.012
Mg3.07Sb1.5Bi0.45Se0.05,500,-305.65,9987,0.738,0.633
Li2Ge11Sb2Te15,373,100,179400,1.848,0.362
Ag(Bi0.85Nb0.15)0.9Sb0.1Se2,478,-141,19638,0.644,0.29
Yb0.3Co4Sb12,300,-138,198600,1.9,0.4
Ag0.01Sn0.99Se0.9S0.1,763,362.39,1708,0.223,0.767
Ag0.02Cu1.955S0.5Se0.5,578,149.5,24853,0.841,0.519
Rb2Bi8Se12.974Cl0.026,526,-118.3,14490,0.732,0.146
MgAgSb0.98In0.02,550,154.55,90450,1.647,0.766
Cu3Sb0.85Ge0.15S4,300,114.4,51194,2.183,0.092
(Cu0.005Pb0.995Te)(MnTe)0.03,423,-197.02,74110,1.621,0.751
Ca0.15BaGd1.85NiO5,392,285.29,45.17,2.296,0.001
ZrNiPb0.993Bi0.007,303,-156.4,174500,10.377,0.125
Al0.01Sb0.1Ge0.89Te,823,245.97,59277,1.433,1.819
Yb0.5Co4Sb12,300,-109,254000,1.6,0.3
Cu2.7Ag0.3ErTe3,500,56,228400,2.07,0.173
BaBiTe2.9Se0.1,525,-199.2,4050,0.391,0.216
Zn0.9Cd0.1Sc0.03O1.045,873,-133,32917,3.61,0.141
Cu3P0.9Ge0.1S4,400,143.7,7600,0.735,0.085
Cu5SnSbSe6.58,573,55.86,204310,3.385,0.108
Bi0.875Ba0.125CuSeO,623,207.1,10770,0.743,0.402
Yb8Ca5BaMgSb11,700,165,13500,0.608,0.423
Ba0.98K0.02Zn2As2,323,76.54,139130,2.844,0.093
Bi0.875Ba0.125CuSeO,319,175,18942,0.956,0.194
LaCo0.75Fe0.25O3,300,628.7,21.5,0.31,0.007
Cu7PSe6,623,220,3613,0.321,0.34
Li2Ge3Sb2Te7,473,240,27230,0.781,0.95
Ba0.25Co4Sb11.91,300,-145,131200,4.9,0.2
Yb14MgSb11,1083,237,12050,0.71,1.03
Ba0.9K0.1Zn2As2,723,87.7,92754,2.681,0.192
Nd2.84Te4,373,-42.2,128600,1.934,0.044
Ag(Bi0.85Pb0.15)0.7Sb0.3Se2,378,397.3,681,0.531,0.077
As2Te2.8Se0.2,523,217.17,2275.8,0.532,0.106
Cu3ErTe3,300,39.3,293000,2.56,0.053
LaCo0.5Fe0.5O3,300,655.45,5.3,0.22,0.002
Pb0.98Zn0.035Te,618,-276.3,27240,1.236,1.05
Cu1.6S,450,24,385577,4.319,0.023
Pb0.98Tl0.01Na0.01Te,397,155.52,73245,1.921,0.366
Er0.01(Bi0.23Sb0.77)1.99Te3,450,222.11,33471,1.073,0.693
Mg1.98Ag0.02Zn0.98Sb2,473,133.33,41693,0.94,0.373
Pb6Bi2Se9,423,-112.8,23423,1.123,0.112
Sn0.95Mn0.05Te,524,69.92,289941,4.75,0.156
Ag8Sn0.4Ga0.6Se6,720,-143,19670,0.305,0.95
Cu2.2Se,295,77.23,145946,1.213,0.212
Rb2Bi8Se12.9805Cl0.0195,724,-169.06,10368,0.623,0.344
ZrNiPb0.985Bi0.015,871,-148.5,161052,7.23,0.428
(PbTe)0.15(Ag2Te)0.85,650,-214.4,11275,0.464,0.763
(CaZn0.4Ag0.2Sb)0.91(LiZnSb)0.09,673,189.02,21078,0.738,0.687
GeSe0.8Te0.2,320,14.83,108955,2.014,0.004
Se0.17Co4Sb11.31Te0.53,850,-220,76000,1.3,1.2
AgSb0.95Mn0.05Te2,494,123.51,62000,1.073,0.435
FeNb0.92Zr0.08Sb,900,246.6,84500,6.525,0.709
BaBiTe3,372,-151.8,10350,0.452,0.196
Bi2.0S2.79Se0.21,323,-508,444,0.716,0.052
Ba0.11Yb0.08Co4Sb12,800,-178.62,112600,2.32,1.239
Ti0.99Mn0.01NiSn0.99Sb0.01,871,-154.8,117881,5.893,0.418
Ba8.01Ga15.83Zn0.019Sn30.15,500,485.42,4202,0.862,0.574
Bi0.92Ag0.08CuSeO,723,333,2310,0.411,0.451
Ag2.0Se0.9Te0.1,345,-134.66,101743,0.87,0.732
BiSb(Se0.98Br0.02)3,700,-208,13776,0.53,0.787
Cu2Se0.96S0.04,450,121.05,57192,0.942,0.4
Ca10GaSb9,673,85.82,727,0.613,0.006
AgBi0.95Sb0.05Se2,600,-112,209.4,0.334,0.005
Sn0.95Mn0.05Te,769,126.2,144400,3.17,0.558
Cu5SnSbSe6.58,723,78.62,141379,2.598,0.243
In0.01Pb0.99Te0.994I0.006,428,-186.51,49000,1.657,0.44
Cu2Se0.5S0.5,707,119.3,58000,0.837,0.697
Ca1.55Yb3.45Al2Sb6,515,178.3,900,0.866,0.017
Hf0.5Ti0.5CoSb0.8Sn0.2,676,236.7,38160,2.467,0.592
Bi0.96Ag0.04CuSeO,573,283.47,1781,0.513,0.16
In3.96Pb0.04Se3,330,-192,7000,1.243,0.069
CoSb3.0,673,139,15385,4.4,0.045
Ag(Bi0.9Pb0.1)0.7Sb0.3Se2,478,413.5,1059,0.637,0.136
Cu10.5Ni0.5ZnSb4S13,420,188,8765,0.446,0.292
Cu2.075Sn0.925S3,400,47.11,281250,3.767,0.066
Ca3Co3.8Ti0.2O9,500,169,5305,2.306,0.033
Ca0.15BaGd1.85NiO5,907,171.32,380.78,1.717,0.006
GeSe0.6Te0.4,430,70.8,168519,2.636,0.138
Ca0.05BaGd1.95NiO5,1134,260.29,118.83,1.302,0.007
Cu3Sb0.996In0.004Se4,523,285,8010,1.274,0.267
Cu3Sb0.95Ge0.05S4,300,207.78,9368,2,0.061
Cu2.2Sn0.8Sb0.2Se3.2,622,87.43,129155,2.573,0.239
BiCu0.90SeO,523,189,44,0.914,0.001
Bi1.92Nb0.08Te3,306,-96.58,115325,0.87,0.379
Li2Ge11Sb2Te15,473,144,140000,1.902,0.722
In0.015Pb0.985Te0.998I0.002,663,-233.2,15703,1.354,0.418
Nd2.84Te4,773,-106.2,65060,1.721,0.33
Zn0.95Cd0.05Sc0.02O1.03,373,-71,17600,9.75,0.003
Ba0.10La0.05Yb0.20Co4Sb12,850,-164,193800,0.1,1.3
Nd2.84Te4,1073,-149.37,41162,1.404,0.702
(Sn0.985In0.015Te)0.85(AgCl)0.15,723,115.07,155056,2.578,0.576
Sn0.91Mn0.09Te0.98I0.02,524,107.2,130256,2.568,0.305
Ag(Bi0.85Nb0.15)0.7Sb0.3Se2,576,-214,6761,0.748,0.238
Co4Sb11.7Te0.3,300,-148,52300,4.8,0.1
Cu2.2Se,374,105.9,85140,0.672,0.531
(Sn0.8Ge0.2)0.94Mn0.06Te,373,54.6,252358,2.875,0.098
As2Te2.8Se0.2,373,206.93,1279.8,0.605,0.034
Tl4PbTe3,673,234.5,9800,0.494,0.718
Cu2.1Se,473,65.9,212200,2.438,0.179
(Cu0.002Pb0.998Te)(MnTe)0.03,723,-198.07,51172,1.28,1.134
Sn0.91Mn0.09Te0.98I0.02,891,213.92,43077,1.481,1.186
Na0.23Co4Sb12,700,-237,61000,2.8,0.7
Zn0.9Cd0.1Sc0.02O1.03,673,-107.6,43000,4.34,0.077
Ge0.58Sb0.22Te0.8(AgSnSe2)0.2,423,178.88,41290,0.74,0.774
Mg0.97Li0.03Ge0.9Si0.1,500,248.99,26000,3.17,0.254
Yb0.40Co4Sb12,300,-120,234700,1.6,0.4
BaBiTe2.95Se0.05,373,-165.7,7322,0.432,0.174
Sn0.91Mn0.09Te,622,112.5,134911,3,0.354
Ba8Ga15.88Zn0.007Sn30.12,380,360,14699,0.912,0.794
Hf0.9Ti0.1CoSb0.8Sn0.2,779,207.4,58582,3.24,0.6
Ge0.98Mn0.01Sb0.01Te,598,106.13,172165,2.61,0.444
YbCd1.9Zn0.1Sb2,550,185.2,43866,1.437,0.576
(SnTe)0.96(CuSbTe2)0.04,722,129.67,122800,2.77,0.538
Ca1.18Yb3.82Al1.84In0.16Sb6,569.4,39.5,28970,2.608,0.01
(Sn0.8Ge0.2)0.94Mn0.06Te,673,107,141100,2.21,0.492