Formula,T,Seebeck,s,k,ZT
Pb0.985Zn0.03Te,724,-266.85,25066,1.106,1.169
YbCd1.1Zn0.9Sb2,450,102.4,108700,1.52,0.31
Nd2.78Te4,573,-106,61350,1.234,0.31
NbFe0.94Ir0.06Sb,1101,-205.9,34630,3.46,0.5
YbCd1.2Zn0.8Sb2,450,110.2,99700,1.463,0.378
Cu2.5Sn0.5Sb0.5Se3.5,523,46.86,335460,4.48,0.086
Ag2Se,399,-127.46,284768,2.073,0.548
Cu3ErTe3,700,84,74222,0.62,0.591
Cu2.88Ag0.12SbSe4,323,344,12645,1.87,0.258
NbCo0.98Ni0.02Sn,904,-187.65,40480,6.893,0.187
Bi2Te3,423,-151.8,90500,0.755,1.168
Cu2Se,300,92,99586,0.88,0.287
ZrNiPb0.9Sn0.8Bi0.02,303,-123.5,190000,6.439,0.136
MgAgSb0.98In0.02,300,133.45,102583,1.426,0.459
LiCo0.92Ni0.08O2,523,554.79,0.1,1.568,0
Ag2Mo6Te8,700,21.47,189200,4.114,0.015
K0.45Co4Sb12,800,-181,136000,1.9,0.9
FeNb0.96Ti0.04Sb,300,153,160000,15,0.075
Ba0.21In0.04Co4Sb11.93,850,-209,79200,1.6,1
Mg1.98K0.02Zn0.98Sb2,673,206.88,12063,0.762,0.456
LiCo0.96Ni0.04O2,723,816.55,4.34,1.761,0.001
Ca5Ga1.9Zn0.1Sb6,425,115,30500,1.403,0.122
Ca0.25BaGd1.75NiO5,1275,181.62,512.71,1.248,0.017
(SnTe)25Sb2Te3,423,60.52,278250,4,0.108
CuGaTe2,775,250.7,21300,2.412,0.431
Ca3.46Yb1.35Pr0.19Al2Sb6,823,-54.8,2000,1.371,0.004
BaBiTe2.9Se0.1,373,-171,4499,0.409,0.12
Cu2CdSnSe4,300,235.7,2431,2.776,0.015
BiSbSe2.82Cl0.18,300,-125,18010,0.62,0.136
Bi0.92Ag0.08CuSeO,473,221.49,1675,0.445,0.087
Cu2Zn0.4Fe0.6SnSe4,573,220.81,5458,1.059,0.144
GeTe,573,95.89,294600,4.131,0.376
NbCo0.96Ni0.04Sn,904,-182.25,56568,6.321,0.269
Mg3Sb1.8Bi0.2,660,411.4,1556.5,0.61,0.29
CuGaTe2,325,364,2300,6.965,0.014
(Sn0.985In0.015Te)0.85(AgCl)0.15,523,84.2,249438,3.367,0.275
K0.985Ba0.015GaSb4,324,-145.92,24541,1.18,0.144
(PbTe)0.1(Ag2Te)0.9,600,-181.55,19670,0.515,0.756
Cu0.9Pd0.1FeS2,50,-45.8,58294,13.75,0
Yb13CaMnSb11,973,176.7,20300,0.83,0.712
Ba8Cu5.18Si9.98Ge30.85,663,-132.5,49306,1.64,0.35
LiCo0.96Ni0.04O2,923,652.4,47,1.466,0.013
Tl0.22Co4Sb12,150,-73,162903,3.655,0.036
AgBiSe2.0,710,-264,4650,0.466,0.494
(SnTe)0.98(CuSbTe2)0.02,524,52.47,278383,5.198,0.077
Cu7P(S0.65Se0.35)6,673,303,1675,0.212,0.489
MgAgSb,400,201.27,36364,0.969,0.608
Sn0.97Pb0.01Cd0.025Se,823,305.67,7016,0.497,1.086
Ba0.03Co4Sb12,600,-215.17,29787,3.714,0.223
Cu1.99S0.5Se0.5,475,159.2,3564,0.552,0.078
Pb0.995Zn0.02Te,520,-312.7,22730,1.313,0.88
Bi0.8Ba0.2CuSeO,319,178.4,22596,0.887,0.27
Bi0.9Ag0.1CuSeO,423,200,2079,0.55,0.064
Cu2Zn0.4Fe0.6SnSe4,373,215.9,3226,1.921,0.029
Zn0.85Cd0.15Sc0.02O1.03,573,-79,19800,5,0.014
Ge0.87Mn0.05Sb0.08Te,398,124.03,95876,1.86,0.316
Sn0.98Pb0.01Zn0.01Se,300,435.21,5000,1.234,0.23
(SnTe)12Sb2Te3,773,164,85900,1.95,0.916
(CaZn0.4Ag0.2Sb)0.83(LiZnSb)0.17,371,119.33,42345,0.895,0.25
Cu2Se0.96I0.04,350,106.4,47628,0.5,0.377
La0.1Co4Sb12,473,84,27613,3.716,0.025
Cu0.99Pd0.01FeS2,300,-396,5233,9.2,0.027
(SnTe)0.84(CuSbTe2)0.16,818,157.14,91351,1.714,1.076
Rb2Bi8Se12.9415,526,-220,5950,0.594,0.255
BaErCo4O7,368,132,94,0.624,0.001
Nd2.86Te4,1073,-134.2,61300,1.588,0.746
Yb0.066Co4Sb12,300,-186,48000,4.8,0.1
Ba0.96K0.04Zn2As2,623,90.74,54237,1.801,0.154
Mg2.16(Si0.4Sn0.6)0.995Bi0.005,620,-260.8,44550,1.743,1.078
Eu0.03Co4Sb12,850,-146,32300,3.5,0.1
Sn0.975Pb0.01Cd0.015Se,473,370.33,2512,0.763,0.214
GeSe0.65Te0.35,630,34,80597,1.757,0.033
Cu2.2Sn0.8Sb0.2Se3.2,473,68.57,160372,2.973,0.12
Ag8GeTe6,413,467,275,0.267,0.091
GeSe0.95Te0.05,535,599.48,63.32,1.063,0.011
Li0.01Cu1.85Se,706,57.11,235577,3.379,0.161
In0.01Pb0.99Te0.998I0.002,585,-256,18125,1.384,0.497
BaZn2As2,323,203,6942,1.879,0.049
Sr0.21Yb0.03Co4Sb12.12,500,-146,243182,3.77,0.687
TiZr0.015NiSn,522,-203.05,57077,2.366,0.555
YbCd1.7Zn0.3Sb2,550,180.4,50995,1.375,0.693
Ca5In1.95Zn0.05Sb6,922,215.73,12860,0.815,0.68
(SnTe)40Sb2Te3,773,143.53,105875,2.594,0.65
In4Se2.32Cl0.03,373,-228,27400,1.087,0.493
Pb0.98Tl0.01Na0.01Te,301,125.2,91454,2.294,0.188
K0.22Co4Sb12,800,-180,65000,3.3,0.4
(V0.6Nb0.4)0.8Ti0.2FeSb,900,214.1,62670,2.37,0.8
FeNb0.86Hf0.14Sb,500,124.5,366667,5.763,0.493
Sn1.03Se0.08Te0.92,423,26.17,387719,5.428,0.021
Cu3SbS4,373,641.76,200.8,1.414,0.022
AgSn15.0BiTe17.0,300,65.86,204810,2.6,0.103
Cu2ZnSn0.98Ag0.02Se4,473,95.77,50654,3.643,0.06
Li0.03Cu1.82Bi0.03Se,401,43.59,95402,1.348,0.054
Zr0.5Hf0.5 CoSb0.8Sn0.2,974,216.7,56580,2.19,0.8
Cu2Se,572,76.2,189189,2.509,0.25
Cu2Se0.96I0.04,365,120,34927,0.35,0.525
Ag0.97Cr0.97Sb0.03Se2,403,86.02,21461,0.474,0.135
(SnTe)12Sb2Te3,723,162.5,87700,1.88,0.878
NbCo0.94Ni0.06Sn,487,-68.53,164524,8.536,0.044
Pd0.20Co3.80Sb12.01,850,-203,78100,3.3,0.6
Ca5Ga1.9Zn0.1Sb6,525,133,28513,1.258,0.213
Ce0.15Co4Sb12,850,-194,115000,1.1,1.2
Sn0.91Mn0.09Te0.97I0.03,524,106.19,137949,2.75,0.296
Cu3.0SbSe4,523,379,4518,1.24,0.274
Cu2Sn0.95Fe0.05Se3,423,71.43,100000,2.703,0.08
Cu5.133Sn1.866S7,300,21.31,400000,6.563,0.008
Pb0.975Zn0.04Te,520,-232.61,38400,1.511,0.72
Ca14MgBi11,621,69.85,27652,1.046,0.08
ZnSc0.02O1.03,1173,-290,4700,5.7,0.081
BiCuSeO,319,427.56,777,0.784,0.058
Ag2.0Se0.9Te0.1,375,-133,108624,0.92,0.783
Ge0.9Mn0.05Sb0.05Te,398,92.3,136082,2.61,0.177
BiCu0.925SeO,723,292,1907,0.93,0.126
Cu2Se0.92S0.08,372,125.66,59220,0.396,0.878
YbCd1.8Zn0.2Sb5,650,181.84,43067,1.281,0.723
Ag2Se1.02,362,-135.53,144590,1.147,0.838
Ag0.97Cr0.99Sb0.01Se2,603,132.2,13545,0.472,0.302
Sn0.97Pb0.01Cd0.025Se,473,365.33,2873,0.703,0.258
Mg1.96Li0.04Zn0.98Sb2,373,62.7,127831,1.338,0.138
Ag0.98Nb0.02BiSe2.0,425,-150,14713,0.68,0.207
Ge0.87In0.05Pb0.08Te,375,183.19,48117,1.113,0.544
Cu2.8Sn0.2Sb0.8Se3.8,473,54.29,300000,4.553,0.092
Cu26Ti2Sb4Ge2S32,596,180.93,36306,0.943,0.751
Ag0.03Cu1.945S0.5Se0.5,772,228,22426,0.761,0.9
Cu0.995Pd0.005FeS2,300,-404.5,4217,7.84,0.026
Ta0.98Ti0.02FeSb,970,319,25300,4.38,0.566
K0.22Co4Sb12,300,-120,164000,5.7,0.1
Cu10.5NiZn0.5Sb4S13,420,176,17950,0.524,0.442
Cu3P0.8Ge0.2S4,400,96,30740,0.982,0.115
Cu2.9Ag0.1ErTe3,500,57,203556,2.06,0.161
Ca14MgSb11,400,121.43,2620,0.6,0.026
In4Se2.32Cl0.03,648,-301.7,11516,0.733,0.927
ZrNiPb0.94Sn0.4Bi0.02,771,-148.9,206610,5.333,0.662
Ag8Sn0.5Ga0.5Se6,477,-435.28,298,0.248,0.109
Sr0.11Ba0.18Co4Sb12.09,600,-144,256018,3.93,0.811
(Sn0.8Ge0.2)0.85Mn0.15Te,473,84.8,156300,1.732,0.307
Ag0.4Sb1.1Pb19.6Te18.8,373,20.8,18406,1.663,0.002
Ca14MgBi11,521,66.94,24828,0.954,0.061
Mg2.16(Si0.4Sn0.6)0.98Bi0.02,800,-212.94,78824,2.308,1.239
Mg3.07Sb1.5Bi0.44Se0.06,300,-296.45,6769,0.825,0.216
Cu3Sb0.997In0.003Se4,473,301,6700,1.41,0.21
Cu2Sn0.8Zn0.2S3,523,78,98400,1.86,0.168
AgBiSe2,600,55.8,237,0.41,0.001
Cu3.0SbSe4,398,465,2487,1.76,0.122
Nb0.95Ta0.05CoSn0.9Sb0.1,338,-89.3,140000,5.562,0.068
Ca1.11Yb3.89Al2Sb5.77Ge0.23,520,54.3,16500,2.037,0.012
Cu2Sn0.8Zn0.2S3,723,117.47,61095,1.28,0.476
Ag3.7Mo9Se11,447,93.6,47100,1.162,0.159
Ag0.01Sn0.99Se0.85S0.15,418,352.56,841,0.192,0.228
As2Te2.3Se0.7,523,206.12,585.95,0.479,0.027
Mo3Sb7I1.25,523,35.83,483500,5.602,0.058
Ag0.01Cr1.99Se3,619,161.14,24464,1.638,0.24
(SnTe)25Sb2Te3,323,44.48,352625,4.28,0.053
Sr0.21Co4Sb12.25,650,-184,137273,3.65,0.828
Yb13.44Ce0.4Mn1.09Sb11.07,1073,224.28,11340,0.656,0.933
BaCu4.0S3.0,400,77,13920,0.75,0.044
As2Te2Se,523,171.29,153.99,0.414,0.006
Cu2.1Cd0.9SnSe4,450,138.6,23908,1.224,0.169
)",823,140.8,61700,1.27,0.792
Ba0.05Yb0.09Co4Sb12,800,-235.5,78191,2.59,1.28
Eu2Zn0.96Sb2,723,200,14898,0.47,0.917
(PbTe)(MnTe)0.03,823,-237.19,20966,1.171,0.829
Pb0.96Tl0.02Na0.02Te,497,189.87,58640,1.461,0.719
Tl9.0Bi0.96Te6.0,500,210.4,19700,0.497,0.878
Cu10.5Ni0.5ZnSb4S13,517,205.4,10153,0.47,0.473
BaGd2NiO5,862,433.82,25.4,1.564,0.003
Ba8.01Ga15.88Zn0.009Sn30.11,460,437.68,6118,0.82,0.658
Yb13.44Ce0.4Mn1.09Sb11.07,373,72.1,34590,0.763,0.088
Cu1.55S,500,22.3,451442,4.815,0.023
GeSe0.95Te0.05,326,634,12.4,1.913,0.001
Ag1.2Sb0.8Pb14.9Te22.7,673,305,4350,0.95,0.28
Cu3P0.7Ge0.3S4,350,68.3,57975,1.307,0.072
Ga0.10Co4Sb11.95Ga0.05,650,-281,34900,2.2,0.7
Nd2.9Te4,373,-35.7,180000,2.449,0.035
Ag3.9Mo9Se11,547,146.6,21556,0.76,0.333
ZrNiSn,873,-154.9,86806,3.707,0.49
CuFeS2,30,-306.87,26.4,29.77,0
Ag8Sn0.6Ga0.4Se6,523,-417.76,792,0.262,0.275
Sn0.975Pb0.01Cd0.015Se,373,344.37,2416,0.964,0.111
AgCuTe0.5Se0.5,522,161.05,1845,0.296,0.084
CuFe0.92In0.08S2,600,-379.2,2507,1.604,0.134
Mg3.5Ho0.03Sb2,400,-220.07,15724,1.042,0.292
SnAgSbSe2,700,86.7,190140,4.18,0.239
NbCoSn,678,-219.2,43077,8.78,0.16
Rb2Bi8Se13,330,-268,1591,0.51,0.074
SnTe0.25AgSbSe2,700,142.2,71800,1.62,0.627
In0.01Pb0.99Te0.998I0.002,533,-259,19100,1.44,0.471
Bi0.94Pb0.06CuSeO,250,110.8,58250,1.72,0.104
Cu2Se0.96S0.04,333,97.04,112838,0.816,0.434
FeNb0.9Zr0.1Sb,300,107.52,397674,12.627,0.109
Tl9.0Bi0.99Te6.0,503,264,11182,0.394,0.995
Eu0.19Co4Sb12,850,-191,89300,1.9,0.8
Ti0.82PtSb,1072,-164,72850,1.55,0.74
Ba8.03Cu5Ge40.97,514,-136.4,38800,1.249,0.297
Mg2.16(Si0.4Sn0.6)0.99Bi0.01,700,-235.6,65800,2.038,1.254
BiSb(Se0.98Br0.02)3,400,-147,19362,0.61,0.274
Ag0.03Cu1.945S0.5Se0.5,375,155.16,4706,0.6,0.071
Zn0.95Cd0.05Sc0.02O1.03,973,-147,12900,4.08,0.066
Ca3Co3.9Ti0.1O9,700,178,6682,2.258,0.066
ZrNiPb0.985Bi0.015,303,-90.61,347550,10.803,0.08
(SnTe)0.88(CuSbTe2)0.12,622,117.31,123839,2.236,0.474
(Cu0.002Pb0.998Te)(MnTe)0.03,773,-206.14,43586,1.24,1.155
Cu2.2Se,473,113.37,74324,1.161,0.389
(Bi0.23Sb0.77)2Te3,400,241.93,37164,0.935,0.931
Ag0.97Cr0.97Bi0.03Se2,753,180.98,10468,0.396,0.652
(Sn0.8Ge0.2)0.91Mn0.09Te,573,94,155977,2.11,0.374
Mg3.07Sb1.5Bi0.47Se0.03,300,-280.98,7561,0.776,0.231
SnS0.91Se0.09,573,293.3,31650,1.217,1.285
Ba1.6Bi0.4CoRuO6,618,34,165635,1.2,0.099
Sn0.97Ce0.03Te,723,185,50000,2,0.619
Ag0.8Sb0.8Pb18.3Te20.0,523,-294,8800,0.76,0.523
Ca5In1.98Zn0.02Sb6,822,270,4702,0.655,0.43
Cu2.1Se,374,50,246000,1.613,0.143
Ge0.55Pb0.45Te0.5Se0.5,300,220.5,10377,0.668,0.25
Ti0.97Mn0.03NiSn0.97Sb0.03,598,-140.76,139735,5.396,0.307
Mg2.9875Na0.0125Sb2,673,171,24000,1,0.472
Rb2Bi8Se12.9805,526,-292.4,3598,0.55,0.294
Rb2Bi8Se12.9415,823,-193.2,10644,0.599,0.546
Ba0.95K0.05Zn2As2,723,86,72700,2.404,0.162
NbCo0.96Ni0.04Sn,804,-174.12,64142,6.691,0.234
Bi0.92Ag0.08CuSeO,673,331,2210,0.428,0.381
Ag0.03Cr1.97Se3,671,155.3,25536,1.564,0.264
(Sn0.8Ge0.2)0.85Mn0.15Te,773,134,100000,1.408,0.987
Cu0.995Pd0.005FeS2,10,-149.6,0.05,26.25,0
Bi2Te3,426,-132.8,27078,0.874,0.233
Ca3Co3.8Ti0.2O9,900,224,6472,1.988,0.147
Zn0.96Al0.04O,373,-65,63760,5.83,0.017
Ti0.98Mn0.02NiSn0.98Sb0.02,598,-152.43,160927,5.577,0.401
(Cu3SnS4)0.875(Ga2Te3)0.125,527,116.67,68624,1.929,0.255
(SnTe)8Sb2Te3,523,148.46,93924,1.71,0.633
Rb2Bi8Se12.9805Cl0.0195,625,-160,9338,0.628,0.238
Yb13CaMnSb11,1163,194.1,18482,0.88,0.897
NbCo0.96Ni0.04Sn,1002,-186.47,51124,6.083,0.293
Ag2Se1.01,362,-137.23,135738,1.124,0.823
ZrNiPb0.98Bi0.02,673,-146.94,230500,7.33,0.457
Bi0.94Ag0.06CuSeO,373,235.5,1576,0.55,0.059
Sn0.96Pb0.01Cd0.035Se,873,294.04,8707,0.343,1.917
BiSbSe2.76Cl0.24,600,-222,7350,0.45,0.483
Sn0.96Pb0.01Cd0.035Se,373,331,3651,0.671,0.222
Ca0.05BaGd1.95NiO5,632,234.56,48.11,1.684,0.001
Na0.23Co4Sb12,300,-169,127000,6.1,0.2
Ca5Ga1.9Zn0.1Sb6,624,143.4,26800,1.16,0.306
Ag0.01Sn0.99Se,567,401.28,586,0.288,0.186
Tl2GeTe3,423,227.5,3200,0.29,0.242
CoAsSb,800,-91.4,89700,4.604,0.13
YbSi2,475,-39.6,641000,9.933,0.048
AgBiSe2.12,450,573,230.25,0.653,0.052
Ge0.55Pb0.45Te0.5Se0.5,721,273.13,12000,0.456,1.555
Ge0.55Pb0.45Te,721,128.57,39474,1.72,0.283
Yb13.43Ce0.44Mn1.07Sb11.07,873,196.8,16130,0.632,0.863
Hf0.5Ti0.5CoSb0.8Sn0.2,989,233.4,41700,2.57,0.867
Ca0.1BaGd1.9NiO5,736,168.38,140.06,1.98,0.001
In4Pb0.01Sn0.03Se2.9Cl0.06,673,-261.4,10400,0.542,0.894
Co0.97Ni0.03GeTe,701,-112.34,74468,4.298,0.153
(PbTe)0.15(Ag2Te)0.85,600,-191.2,17800,0.493,0.792
Ba7.97Ga15.95Sn30.05,300,315.4,14140,0.987,0.427
Mg2Sn0.995Sb0.005,444,-170.09,138596,4.076,0.437
Co0.95Ni0.05GeTe,394,-54.89,158995,5.649,0.033
Ag0.8Sb0.8Pb18.3Te20.0,623,-260,16000,0.72,0.936
Sn1.03Se0.15Te0.85,523,48.72,242609,3.528,0.085
CuAgTe0.6Se0.4,443,232.07,6386,0.36,0.424
Mg2.9875Na0.0125Sb2,573,152,28300,1.11,0.338
Cu2Se0.92S0.08,303,97.7,103086,0.73,0.408
Ag2Te,500,-117.74,51066,0.576,0.614
ZrNiSn,573,-152.1,58897,3.573,0.219
Sn0.9Pb0.09Zn0.01Se,373,542.2,280,0.977,0.031
Bi0.8Ba0.2CuSeO,623,202.47,11731,0.709,0.539
Ag2Se1.03,310,-143.2,108700,0.988,0.699
Eu2Zn0.96Sb2,473,160,20850,0.497,0.508
Mg1.98Li0.02Zn0.98Sb2,473,110.58,67302,1.058,0.368
Ba8Cu5Si25Ge16,465,-75.5,100000,1.87,0.142
BaBiTe2.95Se0.05,474,-185.3,7830,0.414,0.308
YbCd1.5Zn0.5Sb2,450,149,73113,1.42,0.57
Yb13CaMnSb11,373,61.94,43100,0.789,0.069
Bi1.9Nb0.1Te3,478,-117.7,60000,0.762,0.522
(CuI)0.003Bi2Te3,371,-165.74,109029,1.356,0.82
Cu7P(S0.25Se0.75)6,673,238,5140,0.311,0.63
Ba8.01Ga15.88Zn0.009Sn30.11,500,450.7,5876,0.855,0.698
Cu11.9Gd0.1Sb4S13,724,138.5,64592,1.368,0.656
As2Te1.5Se1.5,423,589.8,21.84,0.328,0.01
GeSe0.8Te0.2,728,68.84,57090,1.791,0.11
Nb0.9Ta0.1CoSn0.9Sb0.1,826,-163.05,90496,4.206,0.472
Ge0.83In0.05Pb0.12Te,525,239,25109,1.02,0.738
BiCuSeO,347,127.63,6575,0.602,0.062
Cu7P(S0.6Se0.4)6,523,275.5,1990,0.225,0.351
Mg3.07Sb1.5Bi0.47Se0.03,500,-301.52,10459,0.706,0.674
TiZr0.015NiSn,626,-207.94,69147,2.465,0.778
Cu2S0.5Se0.5,375,215.7,1490,0.544,0.048
FeNb0.9Zr0.1Sb,500,157.5,244186,9.559,0.317
Ca9Yb2Sb9Ge,419,-3.56,12371,0.788,0
K8Al8Ge38,250,-27,41400,1.191,0.006
Ba1.4Bi0.6CoRuO6,418,143.3,21940,1.168,0.161
Ag0.02Cr1.98Se3,725,157.2,23300,1.649,0.253
Tb0.03Co4Sb12,300,-242,36600,4.6,0.1
Sr0.21Yb0.03Co4Sb12.12,850,-183,173636,3.7,1.336
ZrNiPb0.995Bi0.005,303,-169,130250,9.738,0.116
Cu2Se0.92I0.08,425,197.5,9940,0.522,0.316
Cu12Sb4S13,724,136.94,63403,1.359,0.634
Ba0.98K0.02Zn2As2,723,148,50000,1.666,0.475
Ba0.08Yb0.09Co4Sb12,600,-175.5,138000,2.45,1.03
Ag0.94CuSe,391,-14.65,59903,1.881,0.003
YbCd1.5Zn0.5Sb2,650,175.3,57600,1.14,1.13
Mg2Zn0.96Sb2,373,289.47,3411,0.629,0.169
Li2Ge11Sb2Te15,573,170,115000,1.848,1.036
Co9S8,107,-4.7,6740000,20.27,0.001
CsNd2Ag3Te5,539,147.25,389.6,0.311,0.015
GeTe,425,44,460000,5.552,0.068
Cu1.7Se,672,60.4,287838,4.41,0.16
Yb14MgSb11,1000,224,12800,0.703,0.912
Ag0.01Sn0.99Se0.85S0.15,567,426.07,458,0.141,0.334
Sr0.16Yb0.03Co4Sb11.82,800,-188,155909,3.5,1.26
Rb2Bi8Se12.9935,330,-220,8485,0.712,0.19
SnS0.94Se0.06,723,370,9400,1.03,0.903
(Zn0.9In0.1)4Sb3,473,202,13120,0.814,0.311
Ca0.25BaGd1.75NiO5,891,141.91,345.04,1.314,0.005
Ag0.01Cr1.99Se3,300,88.86,39607,1.635,0.057
Mg3.5Ho0.02Sb2,700,-333.57,6819,0.717,0.741
Ca3.2Yb1.65Pr0.15Al2Sb6,723,55.4,4200,1.492,0.006
Er0.02(Bi0.23Sb0.77)1.98Te3,350,236.15,49561,0.801,1.208
Rb2Bi8Se12.9805Cl0.0195,428,-131.82,14485,0.705,0.153
YbCd1.8Zn0.2Sb4,550,182.45,45691,1.374,0.609
Ti0.95Mn0.05NiSn0.95Sb0.05,598,-140.87,197351,5.855,0.4
Mg3.5Gd0.03Sb2,500,-254.23,16667,0.86,0.626
Sn0.98In0.02Se,673,461,195,0.63,0.046
Ag(Bi0.8Nb0.2)0.7Sb0.3Se2,576,-229,5754,0.579,0.3
Sn0.87Mn0.1Bi0.03Te,373,64,240000,4.075,0.09
Ba0.38Co4Sb11.74,300,-70,393900,2.4,0.1
Sr0.11Ba0.18Co4Sb12.09,700,-154,231818,3.87,0.994
AgBiSe2,550,460.94,405,0.483,0.107
Bi0.48Sb1.52Te3,350,239.59,50000,1.222,0.822
Mg1.98K0.02Zn0.98Sb2,573,233.86,8254,0.668,0.387
YbCd2Sb2,450,125.5,89080,1.448,0.436
Yb8Ca5BaMgSb11,1100,222,11320,0.643,0.954
Sr0.40Co4Sb12.54,850,-123,206000,0.6,0.7
K0.985Ba0.015GaSb4,416,-184,24338,0.957,0.358
Sn1.03Se0.08Te0.92,323,12.63,557018,6.308,0.005
MgAgSb0.99In0.01,500,202.73,57455,1.151,1.026
NbCo0.95Pt0.05Sn,319,-123.2,135870,4.65,0.13
Mg3.5Ho0.04Sb2,600,-292.55,12029,0.825,0.749
ZrNiPb0.92Sn0.6Bi0.02,475,-126.9,276964,5.837,0.363
Cu2.025Cd0.975SnSe4,650,200,6448,0.854,0.196
Ag0.4Sb1.1Pb19.6Te18.8,523,-68.8,17450,1.378,0.031
Ba8.02Cu4.98Si35Ge5.99,665,-90,95350,2.253,0.239
(Sn0.8Ge0.2)0.82Mn0.18Te,673,126,108900,1.54,0.756
Dy0.02Co4Sb12,550,-303,22600,3.4,0.3
Yb14MgSb11,700,157.4,17800,0.771,0.4
Tl9.0Bi0.95Te6.0,385,157.7,30000,0.55,0.522
Li0.03Cu1.81Bi0.04Se,606,107.7,70115,1.428,0.345
Pb0.98Tl0.01Na0.01Te,497,193.14,55674,1.563,0.661
Sn1.03Se0.12Te0.87Br0.01,623,103.08,200000,2.509,0.453
Ca3Al0.95Zn0.05Sb3,822,275.8,4130,0.66,0.391
Sb2Si2Te6,773,222.28,12361,0.419,1.127
FeVSb,600,-235,52100,6.5,0.277
Bi2.0S2.79Se0.21,423,-529.7,379,0.608,0.074
Cu0.995Pd0.005FeS2,70,-487,264.2,29.43,0
Ag8Sn0.7Ga0.3Se6,313,-549.53,33,0.216,0.014
Zn0.9Cd0.1Sc0.04O1.06,300,-84.3,46667,8,0.012
Ca14MgSb11,500,123,4150,0.632,0.492
La0.1Ca0.9TiO3,538,-129.4,26340,3.5,0.068
Ca3Co2O6,773,146,4570,4.64,0.016
Ag0.03Cu1.945S0.5Se0.5,673,202.13,26176,0.817,0.7
Bi0.94Ag0.06CuSeO,673,322.3,1934,0.487,0.278
Cu2.94Ag0.06SbSe4,348,428,5714,1.85,0.197
Mg0.95Li0.05Ge0.9Si0.1,500,293.3,11700,3.031,0.166
Ba1.9Bi0.1CoRuO6,318,65.4,28500,1.444,0.027
Ca3Co3.8Ti0.2O9,300,149,4967,2.49,0.013
Y0.2Bi1.8Te3,498,-152.33,59045,0.829,0.827
Ta0.98Ti0.02FeSb,670,278,40700,5.593,0.375
Zn0.9Cd0.1Sc0.01O1.015,673,-112,44400,4.394,0.085
Ca5Ga1.95Zn0.05Sb6,724,175.6,15320,0.914,0.374
Cu11.6Gd0.4Sb4S13,625,118.13,86315,1.394,0.54
Tl9.0Sb0.97Te6,327,104,50000,0.73,0.242
Zn0.9Cd0.1Sc0.01O1.015,773,-120.5,40400,4,0.113
Sr0.21Yb0.03Co4Sb12.12,300,-109,342273,4.23,0.288
Cu1.85Ag0.15SnSe3,600,342.42,1316,0.41,0.226
Bi0.96Pb0.02Yb0.02CuSeO,640,189.47,13061,0.584,0.514
NbCo0.96Ni0.04Sn,704,-164.41,72189,7.262,0.189
Mg2Cu3In3Te8,720,276,6965,1.197,0.319
Ce0.75Fe3CoSb12,513,88.6,110244,6.459,0.069
Mg0.97Li0.03Ge0.9Si0.1,400,216.78,33154,3.805,0.164
La0.2Ca0.8TiO3,432,-72,192473,3.776,0.114
Tl9.0Bi0.97Te6.0,443,195,22000,0.474,0.782
EuZn2Sb2,600,177,65385,1.49,0.825
Cu10.5Ni1.5Sb4S13,323,136.4,16380,0.632,0.156
SnS0.97Se0.03,423,252.8,41300,2.19,0.508
Mg3Sb1.8Bi0.2,750,409,2500,0.55,0.57
Cu2.1Se,870,147.52,81081,1.775,0.865
CaTiO3,1016,-369,1400,2.75,0.07
Sr0.21Yb0.03Co4Sb12.12,700,-170,194091,3.6,1.091
Ti0.97Al0.03O2,296,-322.67,2077,5.812,0.011
Ga0.03Co4Sb11.985Ga0.015,600,-323,11700,2.3,0.3
(Cu0.003Pb0.997Te)(MnTe)0.03,723,-171.05,65655,1.371,1.013
Zn0.9Cd0.1Sc0.04O1.06,773,-131.3,31000,3.955,0.104
Cu3ErTe3,800,101,46667,0.7,0.544
Mg2Cu3In3Te8,335,311.3,1483,3.577,0.013
Ag0.01Sn0.99Se0.9S0.1,418,347.44,1108,0.263,0.213
Mo3Sb7I,623,42.49,460700,6.197,0.086
CuAgTe0.6Se0.4,383,220.92,8060,0.32,0.471
Ta0.92Ti0.08FeSb,970,258,69750,3.95,1.14
Cu2Se0.92I0.08,365,154.8,10657,0.248,0.376
Mg2.975Na0.025Sb2,673,142,33500,1.21,0.376
SnSe0.9S0.1,300,186.08,530,1.416,0.004
Ca3Co3.9Ti0.1O9,1000,213.6,7100,2.034,0.159
)",753,143.6,55140,1.189,0.72
AgSn15.0BiTe17.0,500,123,121153,2.09,0.438
CoSb3.0,323,-224,3571,6.9,0.008
LiCo0.98Ni0.02O2,323,342.07,0,2.25,0
Sn0.8Ge0.2Te,473,53.7,329200,4.719,0.095
YbCd1.9Zn0.1Sb2,650,182,41600,1.312,0.683
Hf0.5Ti0.5CoSb0.8Sn0.2,779,238.5,37900,2.465,0.685
GeSe0.75Te0.25,630,35.69,60821,1.524,0.032
Ca5Ga1.7Zn0.3Sb6,425,70,56499,1.677,0.07
Cu2Se,550,125.66,64231,1.13,0.494
Cu26V2Ge3Sb3S32,594,185.65,29781,1.045,0.583
Pb0.99Na0.01Te,696,261.76,33630,1.039,1.544
Yb14MnSb11,525,84,35500,1.06,0.124
AgBi0.9Sb0.1Se2,400,460.94,26.6,0.399,0.006
Tl8.98Sb1.02Te6,385,140,34220,0.54,0.478
Eu(Zn0.7Cd0.3)2Sb2,300,148,57000,1.838,0.204
Mo3Sb7I1.5,823,42.6,343854,5.785,0.088
Ag0.03Cr1.97Se3,405,114,34821,1.514,0.124
Cu2SnSe3,423,100.85,12245,2.046,0.026
Ba2CoRuO6,418,26,102900,1.462,0.02
Ag2Se1.04,377,-137.02,131311,1.114,0.834
Mg3.5Gd0.02Sb2,700,-318.66,7279,0.691,0.748
Zn0.85Cd0.15Sc0.02O1.03,1173,-133,12500,3.15,0.082
Ag3.5Mo9Se11,743,138.6,32300,1.1,0.419
Zn0.9Cd0.1Sc0.04O1.06,973,-151,25520,3.25,0.174
Ba8.01Ga15.88Zn0.009Sn30.11,300,368.9,7591,0.948,0.327
Ba0.16Co4Sb11.85,850,-190,113000,2.5,0.8
Cu1.5S,350,13.87,570952,4.36,0.009
In0.005Pb0.995Te0.999I0.001,585,-269,13050,1.35,0.405
(Zn0.98In0.02)4Sb3,373,136.2,34540,0.824,0.29
Ag(Bi0.85Pb0.15)0.9Sb0.1Se2,478,437.5,500,0.508,0.09
Mg3.07Sb1.5Bi0.48Se0.02,500,-298.26,11689,0.707,0.735
Ag0.96Nb0.04BiSe2.0,296,-85,22100,0.72,0.066
GeSe0.85Te0.15,530,28.21,59328,1.718,0.015
Rb2Bi8Se12.909,724,-194.2,9120,0.625,0.398
Cu2Se0.92I0.08,359,191,8986,0.14,0.841
Ba8.04Cu4.99Si18Ge22.98,615,-160,25000,1.526,0.257
Zn2Cu3In3Te8,572,190,13482,1.613,0.173
Pb6Bi2Se9,323,-75,33154,1.125,0.054
Rb7.88Au2.47Ge43.53,200,-9.37,388.47,1.769,0
Cu1.875Ag0.125SnSe3,400,196.43,2571,0.778,0.051
S0.05Pd0.15Co3.85Sb12.03,300,-226,58000,3.4,0.2
Cu11.8Gd0.2Sb4S13,625,115.7,90019,1.444,0.522
Sn0.91Mn0.09Te0.98I0.02,622,133.51,103077,2.28,0.501
AgBi0.97Pb0.03Se2.12,300,421.85,930,0.517,0.096
Cu1.97In0.03Se,672,205.97,26174,0.813,0.927
Mg3.5Ho0.04Sb1.97Te0.03,400,-210.92,24310,0.992,0.436
Ag(Bi0.8Pb0.2)0.7Sb0.3Se2,478,291.8,1778,2.342,0.031
Li0.03Cu1.85Se,603,51.58,232692,2.627,0.142
CoAsSb,500,-130.82,34704,3.034,0.098